# t (s)	mx ()	my ()	mz ()	J-freq (Hz)	B_ext (T)
2e-09	0.6784272	-0.6870323	-0.019534402	1e+10	4.898587e-17
2.005018827419846e-09	0.6882762	-0.6801423	-0.011514941	1e+10	-0.0031014185
2.010009022581063e-09	0.69562113	-0.6767261	-0.0022045714	1e+10	-0.005882438
2.0150265015492422e-09	0.699558	-0.6769913	0.007566736	1e+10	-0.008099946
2.0200164916537744e-09	0.69933414	-0.68081665	0.016744066	1e+10	-0.009513762
2.0250063262620773e-09	0.69471174	-0.68780553	0.024512023	1e+10	-0.009999999
2.030023485987456e-09	0.68589365	-0.6974247	0.030165479	1e+10	-0.009505995
2.035013032133123e-09	0.6737615	-0.7088046	0.033091407	1e+10	-0.008085354
2.0400024007005206e-09	0.65947574	-0.7210933	0.032999076	1e+10	-0.005876632
2.045019399615208e-09	0.6444033	-0.73336804	0.029802056	1e+10	-0.003078575
2.0500088624132543e-09	0.6302271	-0.744467	0.023784894	1e+10	5.568418e-06
2.0550259674061338e-09	0.6181876	-0.75350726	0.015450779	1e+10	0.003105683
2.0600155063134998e-09	0.6095133	-0.75950074	0.0057243705	1e+10	0.005885732
2.065005333181739e-09	0.6048291	-0.7618412	-0.0044422452	1e+10	0.008092139
2.0700228867181453e-09	0.60441494	-0.7601887	-0.014075621	1e+10	0.009514999
2.075013016860687e-09	0.6081332	-0.7546729	-0.022141289	1e+10	0.009999997
2.0800028460834143e-09	0.6154709	-0.7458507	-0.027957916	1e+10	0.009510012
2.0850202729748766e-09	0.62571484	-0.7345971	-0.031026665	1e+10	0.008082677
2.0900100117044132e-09	0.63778675	-0.72227025	-0.031043947	1e+10	0.0058727623
2.0950273590966515e-09	0.6507498	-0.7101253	-0.027992401	1e+10	0.0030738164
2.1000172118504784e-09	0.66335964	-0.6996391	-0.022164684	1e+10	-1.0814522e-05
2.105007054064086e-09	0.6745717	-0.6918373	-0.014098355	1e+10	-0.003094385
2.110024602890341e-09	0.683318	-0.6874026	-0.0045352587	1e+10	-0.0058903517
2.1150146995961464e-09	0.6884872	-0.68664944	0.0054598222	1e+10	-0.008095595
2.120004522849385e-09	0.6893915	-0.68944705	0.014942765	1e+10	-0.009511443
2.125022087699523e-09	0.68571025	-0.6954847	0.02303258	1e+10	-0.00999999
2.130011853443359e-09	0.67775834	-0.70414543	0.028865617	1e+10	-0.009508261
2.1350014868511397e-09	0.6663386	-0.71472704	0.031921912	1e+10	-0.008089621
2.140018583499064e-09	0.6525975	-0.7264093	0.031862915	1e+10	-0.0058684023
2.1450080789178905e-09	0.6381676	-0.73806477	0.028638843	1e+10	-0.0030853418
2.150025058507417e-09	0.6244497	-0.7487754	0.022477623	1e+10	1.5744718e-05
2.155014650129909e-09	0.61302257	-0.7574085	0.014023504	1e+10	0.003098923
2.160004299941758e-09	0.604941	-0.763108	0.004092599	1e+10	0.0058800383
2.165021633179422e-09	0.600921	-0.7651504	-0.006364233	1e+10	0.008098152
2.170011555931188e-09	0.60128534	-0.76310915	-0.016191935	1e+10	0.009512806
2.17500164280806e-09	0.60585964	-0.7570344	-0.024516404	1e+10	0.01
2.180019062395497e-09	0.61420894	-0.74736327	-0.03062182	1e+10	0.009506857
2.185008915519821e-09	0.6254724	-0.73513037	-0.033918425	1e+10	0.008086876
2.1900262885928503e-09	0.63879657	-0.7214649	-0.03414121	1e+10	0.0058644814
2.195016099906751e-09	0.6529435	-0.70795065	-0.031225359	1e+10	0.0030805476
2.200005982112921e-09	0.6668421	-0.69592714	-0.025392117	1e+10	-3.7586724e-06
2.2050234279905253e-09	0.67939985	-0.6865289	-0.017107468	1e+10	-0.0031041664
2.2100135068771744e-09	0.68933535	-0.6806381	-0.007268551	1e+10	-0.0058847163
2.2150034533083235e-09	0.6956872	-0.678526	0.0031638977	1e+10	-0.008091445
2.220021048871638e-09	0.69769025	-0.68016994	0.013179545	1e+10	-0.009514644
2.2250109796014327e-09	0.6950201	-0.6852379	0.021674115	1e+10	-0.009999998
2.2300006859665457e-09	0.68796647	-0.6932069	0.027894434	1e+10	-0.009510432
2.2350178187288904e-09	0.6772605	-0.7034251	0.03127844	1e+10	-0.008083584
2.240007213960841e-09	0.6642226	-0.71488553	0.03147718	1e+10	-0.005874185
2.2450240733322048e-09	0.6501614	-0.7266769	0.028456531	1e+10	-0.003075781
2.2500135722940905e-09	0.63675416	-0.7375691	0.02250674	1e+10	8.5277225e-06
2.2550029887476784e-09	0.6253582	-0.74653697	0.014178993	1e+10	0.0030919558
2.260020288589589e-09	0.617115	-0.7526121	0.004247212	1e+10	0.005888161
2.2650101468979435e-09	0.6129019	-0.75494695	-0.0061600213	1e+10	0.008093916
2.2700000677658968e-09	0.61299	-0.7531563	-0.016035862	1e+10	0.009510579
2.27501767928613e-09	0.6173103	-0.7472241	-0.024461674	1e+10	0.009999994
2.2800075032274175e-09	0.6253485	-0.73773533	-0.030577281	1e+10	0.009509107
2.2850250418594637e-09	0.6364388	-0.72554946	-0.033913717	1e+10	0.008080912
2.2900148356210387e-09	0.64950097	-0.71208036	-0.03413683	1e+10	0.0058703087
2.295004895980877e-09	0.66350734	-0.69869435	-0.031217204	1e+10	0.0030872442
2.3000224985056768e-09	0.67738676	-0.6867149	-0.025324833	1e+10	-1.4136223e-05
2.305012576519198e-09	0.6898129	-0.67741174	-0.017028883	1e+10	-0.0030976844
2.3100026834898854e-09	0.69970304	-0.67146635	-0.0070876377	1e+10	-0.0058792164
2.3150202443450966e-09	0.70601654	-0.6692302	0.0035657566	1e+10	-0.00809764
2.320010441533507e-09	0.707885	-0.67074406	0.013734302	1e+10	-0.00951259
2.3250001621623564e-09	0.7050197	-0.6757357	0.022459477	1e+10	-0.01
2.33001720301737e-09	0.697605	-0.68378377	0.028937263	1e+10	-0.009507219
2.3350066339591448e-09	0.6865032	-0.6941161	0.032510255	1e+10	-0.008087719
2.340023638328817e-09	0.6728002	-0.7059657	0.03289555	1e+10	-0.00586583
2.345013034097137e-09	0.6581122	-0.7181731	0.030039547	1e+10	-0.0030823802
2.3500023137050446e-09	0.6439358	-0.72968316	0.02419365	1e+10	1.4537437e-06
2.3550195117366914e-09	0.63170266	-0.73941755	0.015856076	1e+10	0.003101827
2.3600091410928283e-09	0.62277424	-0.7462398	0.005962172	1e+10	0.0058824983
2.3650265789978617e-09	0.6178541	-0.7494249	-0.004550076	1e+10	0.008099975
2.3700164024778408e-09	0.6173033	-0.74850863	-0.014476904	1e+10	0.009513745
2.3750063490814864e-09	0.6209405	-0.7435488	-0.02289665	1e+10	0.009999999
2.3800238739429713e-09	0.6283174	-0.73499924	-0.0290625	1e+10	0.009505919
2.385013838701018e-09	0.63859063	-0.72389203	-0.032378543	1e+10	0.008085056
2.3900038661805844e-09	0.6508557	-0.71142894	-0.03260644	1e+10	0.005875887
2.395021237778942e-09	0.66414535	-0.69892395	-0.029684465	1e+10	0.0030774763
2.4000112561969615e-09	0.6772083	-0.68784386	-0.023865882	1e+10	-7.0724764e-06
2.4050013325979466e-09	0.68897	-0.67920536	-0.01564518	1e+10	-0.0030909663
2.4100188706062755e-09	0.6983093	-0.6737233	-0.0057436214	1e+10	-0.005887441
2.4150087487047625e-09	0.70403874	-0.67182446	0.004734447	1e+10	-0.0080934
2.4200262081458757e-09	0.70540106	-0.6735291	0.014812575	1e+10	-0.009515641
2.42501607455382e-09	0.70204115	-0.67859113	0.023358067	1e+10	-0.009999995
2.4300054574685204e-09	0.69423187	-0.686557	0.029598963	1e+10	-0.009509505
2.435022619749952e-09	0.68271846	-0.6968347	0.032971565	1e+10	-0.008081808
2.4400121479324046e-09	0.6688873	-0.7084739	0.0331349	1e+10	-0.005871676
2.4450016651707785e-09	0.65419614	-0.72054935	0.030090267	1e+10	-0.0030891749
2.4500187279912482e-09	0.64015234	-0.7320522	0.024062153	1e+10	1.1767142e-05
2.455008236284868e-09	0.6283611	-0.74176073	0.01568658	1e+10	0.0030950913
2.4600255987072508e-09	0.61982405	-0.7487533	0.005720097	1e+10	0.0058908574
2.465015380754698e-09	0.61531043	-0.7521309	-0.00470299	1e+10	0.0080958465
2.4700052912375864e-09	0.6149684	-0.75146246	-0.014572664	1e+10	0.009511592
2.475022825205087e-09	0.6186347	-0.7466862	-0.02296417	1e+10	0.0099999895
2.4800128423526512e-09	0.62576926	-0.73832995	-0.029013956	1e+10	0.009508069
2.485002823879173e-09	0.63566613	-0.7273016	-0.032248043	1e+10	0.008089127
2.4900202505344204e-09	0.647529	-0.71478295	-0.0323805	1e+10	0.005867554
2.495009886952681e-09	0.6602582	-0.7023284	-0.029377852	1e+10	0.0030842612
2.5000273686520527e-09	0.67294353	-0.69118506	-0.023439895	1e+10	-1.7196222e-05
2.505017262818448e-09	0.68433064	-0.6826141	-0.015153256	1e+10	-0.003100484
2.510007252787353e-09	0.693342	-0.6773071	-0.005294597	1e+10	-0.0058815386
2.5150248121239926e-09	0.6989199	-0.67560965	0.005179231	1e+10	-0.008099324
2.520014603889276e-09	0.70019406	-0.6775171	0.015056614	1e+10	-0.009513397
2.5250046833808535e-09	0.6968843	-0.68270516	0.023384837	1e+10	-0.01
2.5300218857893585e-09	0.6892202	-0.6907114	0.029381944	1e+10	-0.009506307
2.5350114609160295e-09	0.6781442	-0.7007709	0.03244053	1e+10	-0.008085935
2.54000104398957e-09	0.66489935	-0.71211004	0.032337997	1e+10	-0.005877322
2.545018008804701e-09	0.6508995	-0.7238663	0.029057395	1e+10	-0.0030794065
2.5500075370617827e-09	0.637809	-0.7348937	0.022922084	1e+10	4.7356752e-06
2.5550245562876835e-09	0.626833	-0.7442449	0.014437804	1e+10	0.0031048402
2.5600143241887185e-09	0.6191068	-0.7507936	0.0045208656	1e+10	0.005885131
2.565004149167157e-09	0.61516523	-0.75374633	-0.0058732666	1e+10	0.008091702
2.570021663820811e-09	0.61520743	-0.75257003	-0.015744688	1e+10	0.009514763
2.5750115341849063e-09	0.61906064	-0.74723953	-0.024007818	1e+10	0.009999997
2.5800013208542582e-09	0.6262561	-0.73825616	-0.029934993	1e+10	0.0095103085
2.585018848078041e-09	0.63617826	-0.7265276	-0.03299765	1e+10	0.008083204
2.5900087073473187e-09	0.64787924	-0.71351814	-0.032886956	1e+10	0.0058734254
2.5950260217163844e-09	0.6605371	-0.70060086	-0.02959103	1e+10	0.0030746162
2.6000159256357837e-09	0.67299384	-0.6893724	-0.02341022	1e+10	-1.0006371e-05
2.605005846069008e-09	0.68423283	-0.68093526	-0.0148878805	1e+10	-0.0030936631
2.610023471696132e-09	0.69316614	-0.67601126	-0.0047923224	1e+10	-0.005889777
2.6150136288324833e-09	0.6986229	-0.6749164	0.0057375804	1e+10	-0.0080952
2.6200036701264292e-09	0.69984996	-0.6774707	0.015668584	1e+10	-0.009511277
2.625021163037739e-09	0.6964823	-0.6832957	0.024044514	1e+10	-0.009999991
2.630010837831212e-09	0.6888273	-0.69173473	0.02997777	1e+10	-0.009508459
2.635000426106891e-09	0.67772245	-0.7021025	0.03298868	1e+10	-0.008090013
2.640017232950414e-09	0.66435295	-0.71365494	0.032806337	1e+10	-0.005869089
2.645006608914234e-09	0.6503488	-0.7253629	0.0294401	1e+10	-0.0030862205
2.6500237056256353e-09	0.6370711	-0.73636544	0.023137677	1e+10	1.4894678e-05
2.655013254630825e-09	0.62601453	-0.74550617	0.014535182	1e+10	0.0030980895
2.6600029407913287e-09	0.6181426	-0.7518393	0.004432676	1e+10	0.005879347
2.6650203074409045e-09	0.61408865	-0.7545204	-0.006208944	1e+10	0.0080976635
2.67001030930677e-09	0.61412007	-0.7530132	-0.016181048	1e+10	0.009512565
2.67500010840371e-09	0.6180378	-0.74733365	-0.0245324	1e+10	0.01
2.680017599405366e-09	0.625406	-0.73795843	-0.030481495	1e+10	0.009507142
2.685007451364205e-09	0.6354148	-0.7260227	-0.03342297	1e+10	0.008087417
2.690024837639168e-09	0.64728105	-0.7127932	-0.03313154	1e+10	0.00586522
2.6950145429142873e-09	0.6599021	-0.6999706	-0.029630134	1e+10	0.0030814784
2.700004474515921e-09	0.67232335	-0.68896264	-0.023222324	1e+10	-2.8114212e-06
2.705022042707625e-09	0.6835322	-0.6809018	-0.01443509	1e+10	-0.0031033389
2.710012326346962e-09	0.6922868	-0.67656296	-0.0042102262	1e+10	-0.0058841165
2.715002344350995e-09	0.697585	-0.67607105	0.006469517	1e+10	-0.008091035
2.7200200193372066e-09	0.6985947	-0.67923385	0.01657791	1e+10	-0.0095144445
2.7250100093720484e-09	0.69494915	-0.6855461	0.025003763	1e+10	-0.009999998
2.730027225699428e-09	0.68686706	-0.6944523	0.03102823	1e+10	-0.009505265
2.7350167867525285e-09	0.6752858	-0.70512843	0.03403409	1e+10	-0.008083966
2.7400062775047587e-09	0.6614558	-0.71680444	0.033786032	1e+10	-0.0058746613
2.7450231013886095e-09	0.6468197	-0.72865564	0.030258404	1e+10	-0.0030763622
2.75001245552461e-09	0.6331053	-0.7395965	0.023781048	1e+10	7.826036e-06
2.7550019721540577e-09	0.6216449	-0.7486949	0.014927749	1e+10	0.0030913483
2.7600192606528227e-09	0.61350536	-0.75499386	0.004494852	1e+10	0.005887639
2.765009041220163e-09	0.6094532	-0.75758755	-0.006347597	1e+10	0.008093508
2.7700265726136864e-09	0.6096567	-0.75599676	-0.01659565	1e+10	0.009515711
2.775016549434649e-09	0.6139011	-0.75022006	-0.025113538	1e+10	0.009999994
2.7800064250792504e-09	0.6216258	-0.7407824	-0.031156152	1e+10	0.009509317
2.785023768386325e-09	0.63210475	-0.72862387	-0.03419865	1e+10	0.008081383
2.7900136562591862e-09	0.64428765	-0.7152621	-0.033949703	1e+10	0.0058709085
2.7950034033236314e-09	0.6572317	-0.7022004	-0.030445036	1e+10	0.0030881362
2.8000207274799345e-09	0.66998637	-0.69089323	-0.023928113	1e+10	-1.3023456e-05
2.805010816155417e-09	0.6813495	-0.682668	-0.015052454	1e+10	-0.0030966327
2.8100007581957054e-09	0.6902866	-0.6781616	-0.004645263	1e+10	-0.005878238
2.8150184538010082e-09	0.6957456	-0.67756766	0.0063055726	1e+10	-0.00809698
2.8200084531373873e-09	0.6968248	-0.68067	0.016563524	1e+10	-0.009512205
2.8250259093769464e-09	0.69316804	-0.6870159	0.025202215	1e+10	-0.009999987
2.8300156624281227e-09	0.6850735	-0.6958956	0.031295672	1e+10	-0.009507519
2.835005209088979e-09	0.67339563	-0.7065886	0.03433556	1e+10	-0.008088246
2.8400221975871764e-09	0.65936714	-0.7183274	0.034035474	1e+10	-0.0058665634
2.845011651008159e-09	0.6447129	-0.730083	0.030411739	1e+10	-0.003083207
2.850001122541452e-09	0.63096917	-0.7409725	0.023779165	1e+10	7.053136e-07
2.8550181233249714e-09	0.61953455	-0.7500563	0.014687251	1e+10	0.0031009978
2.8600079500951863e-09	0.6116568	-0.7562581	0.0041151675	1e+10	0.005881893
2.865025432267876e-09	0.6079198	-0.7587952	-0.006976203	1e+10	0.008099552
2.870015391836236e-09	0.608543	-0.7571061	-0.017343417	1e+10	0.0095135495
2.875005241526882e-09	0.61324286	-0.7511569	-0.026028724	1e+10	0.01
2.8800227549641547e-09	0.62149316	-0.74137074	-0.032252166	1e+10	0.009506137
2.885012682740145e-09	0.6323899	-0.72885644	-0.03540014	1e+10	0.008085484
2.890002489233681e-09	0.6450232	-0.7149578	-0.035239205	1e+10	0.0058765872
2.8950197957101815e-09	0.65846276	-0.70119905	-0.031729296	1e+10	0.0030783382
2.9000097127618137e-09	0.6715331	-0.68930125	-0.025180213	1e+10	-6.1027076e-06
2.9050272405487334e-09	0.68330956	-0.68040955	-0.01610326	1e+10	-0.0031064434
2.910017169331975e-09	0.69255614	-0.67538905	-0.005470287	1e+10	-0.0058865766
2.915007279769101e-09	0.6982693	-0.67440915	0.0056857285	1e+10	-0.008092858
2.920024853885914e-09	0.6995947	-0.6772905	0.016271051	1e+10	-0.00951538
2.9250148758007414e-09	0.696138	-0.6835091	0.025103584	1e+10	-0.009999996
2.930004614260913e-09	0.6881678	-0.6924069	0.031396743	1e+10	-0.009509669
2.935021644182326e-09	0.6764704	-0.70326775	0.0345932	1e+10	-0.008082169
2.940011098110659e-09	0.6624977	-0.7151054	0.034385674	1e+10	-0.0058722096
2.9450005396134428e-09	0.6477697	-0.72705275	0.030816829	1e+10	-0.0030898475
2.9500174700653744e-09	0.6338438	-0.7382009	0.024147565	1e+10	1.0976763e-05
2.9550070805764476e-09	0.62235916	-0.7474254	0.015055255	1e+10	0.0030944007
2.9600243701652232e-09	0.6143477	-0.7538302	0.0043276018	1e+10	0.0058902334
2.9650142323576388e-09	0.61058074	-0.7564852	-0.006839833	1e+10	0.008095423
2.9700041037323377e-09	0.61118865	-0.75488544	-0.017370146	1e+10	0.009511362
2.9750216329007565e-09	0.61595875	-0.7489109	-0.026266178	1e+10	0.00999999
2.980011555639633e-09	0.6242521	-0.7391113	-0.032597106	1e+10	0.009508319
2.9850013125991357e-09	0.63526547	-0.72647	-0.035856687	1e+10	0.008089685
2.9900187225361015e-09	0.6481125	-0.71230954	-0.035749234	1e+10	0.0058683315
2.9950085409032784e-09	0.66162544	-0.6984073	-0.03226146	1e+10	0.0030850656
3.000026092033012e-09	0.6749038	-0.68621	-0.025629943	1e+10	-1.63941e-05
3.0050160327863144e-09	0.68673384	-0.6771406	-0.016509999	1e+10	-0.003099749
3.010006102701596e-09	0.6960868	-0.67191565	-0.0057455376	1e+10	-0.005880954
3.0150237062977898e-09	0.70190436	-0.6707976	0.0056395316	1e+10	-0.008098916
3.0200137420084966e-09	0.7032565	-0.67361504	0.0163542	1e+10	-0.00951323
3.025003746061886e-09	0.69978744	-0.6798716	0.025385052	1e+10	-0.01
3.030021094272843e-09	0.6916666	-0.6889583	0.03190005	1e+10	-0.009506461
3.0350105977995697e-09	0.67982996	-0.6999809	0.035250347	1e+10	-0.008086254
3.040000052013438e-09	0.6655582	-0.7121012	0.035199296	1e+10	-0.005877826
3.045016992465013e-09	0.6503547	-0.7244419	0.031722065	1e+10	-0.0030800141
3.0500063556474615e-09	0.6360513	-0.73587686	0.025149824	1e+10	3.993371e-06
3.055023447801376e-09	0.6240289	-0.7455079	0.016009226	1e+10	0.0031041782
3.060013151569282e-09	0.61561114	-0.75223213	0.0052813957	1e+10	0.0058845356
3.065002932536701e-09	0.61143607	-0.75525063	-0.005994978	1e+10	0.008091253
3.0700205233107697e-09	0.61171985	-0.7539915	-0.016725078	1e+10	0.009514542
3.075010578343866e-09	0.61621165	-0.74838704	-0.02572374	1e+10	0.009999998
3.080000499518563e-09	0.6243087	-0.7389141	-0.032204486	1e+10	0.009510468
3.0850179379465536e-09	0.63524604	-0.72648734	-0.035605267	1e+10	0.00808354
3.090007735812477e-09	0.6479252	-0.712634	-0.035599537	1e+10	0.0058739195
3.095025140505775e-09	0.6614425	-0.69881666	-0.032173418	1e+10	0.0030751429
3.1000150290176405e-09	0.6746005	-0.68676627	-0.025635522	1e+10	-9.443009e-06
3.105004973685633e-09	0.6864051	-0.6776934	-0.01655039	1e+10	-0.0030931418
3.11002252741667e-09	0.6957898	-0.67239285	-0.005723932	1e+10	-0.005889298
3.1150126420744955e-09	0.70155954	-0.6712105	0.0056321477	1e+10	-0.008094836
3.1200026017427963e-09	0.7029005	-0.6739501	0.016403764	1e+10	-0.00951107
3.1250201412204213e-09	0.69936764	-0.68019253	0.025548434	1e+10	-0.009999992
3.1300097441066963e-09	0.6912181	-0.68920857	0.03209174	1e+10	-0.009508671
3.135026834534134e-09	0.6792158	-0.70030004	0.035516843	1e+10	-0.008080248
3.140016356337208e-09	0.6648234	-0.7124585	0.035499103	1e+10	-0.0058695353
3.145005730819906e-09	0.6495881	-0.724795	0.032068353	1e+10	-0.0030867453
3.1500228312078196e-09	0.6351053	-0.73638576	0.025472306	1e+10	1.4345266e-05
3.1550122646770392e-09	0.6230662	-0.74609035	0.016379962	1e+10	0.003097498
3.160001989552051e-09	0.6145655	-0.75298667	0.0056396173	1e+10	0.005878864
3.165019435406535e-09	0.61029285	-0.7562179	-0.005728569	1e+10	0.008097341
3.170009386105094e-09	0.6104879	-0.75517863	-0.016442997	1e+10	0.009512386
3.175026869272867e-09	0.6148976	-0.7497519	-0.02554475	1e+10	0.009999986
3.1800167367807862e-09	0.6228825	-0.74044603	-0.032079373	1e+10	0.009507311
3.185006745485057e-09	0.63363594	-0.7282098	-0.035530172	1e+10	0.008087678
3.1900241212072733e-09	0.6462718	-0.71433496	-0.035598833	1e+10	0.0058655846
3.1950138911867096e-09	0.6596303	-0.70057297	-0.032266997	1e+10	0.003081868
3.200003661685708e-09	0.67274284	-0.6884324	-0.025805807	1e+10	-2.3007049e-06
3.2050212393080104e-09	0.6846062	-0.67918646	-0.016722837	1e+10	-0.003102859
3.2100112215176364e-09	0.6939752	-0.67378354	-0.0059848996	1e+10	-0.0058835554
3.215001410976378e-09	0.6998304	-0.6724703	0.005361915	1e+10	-0.008090691
3.220018948983896e-09	0.70128757	-0.67511916	0.016195366	1e+10	-0.009514238
3.2250089238935242e-09	0.6979119	-0.6812273	0.025295917	1e+10	-0.009999999
3.230026167724161e-09	0.6898846	-0.6901846	0.031877488	1e+10	-0.009505471
3.2350156932219763e-09	0.67814475	-0.7010958	0.035282113	1e+10	-0.00808437
3.240005195577155e-09	0.663987	-0.7131271	0.035272975	1e+10	-0.005875211
3.2450221767575788e-09	0.64892393	-0.7254132	0.031830054	1e+10	-0.003076915
3.2500115838549107e-09	0.63477606	-0.7368453	0.02528774	1e+10	7.27835e-06
3.2550011139100743e-09	0.6229548	-0.7464913	0.016225979	1e+10	0.0030908356
3.260018370774259e-09	0.61457896	-0.7533871	0.005450017	1e+10	0.0058871866
3.2650082272388288e-09	0.6104314	-0.756576	-0.0058438303	1e+10	0.008093207
3.2700256564512598e-09	0.6106626	-0.75549865	-0.0166175	1e+10	0.009515534
3.275015690797159e-09	0.6150295	-0.7500447	-0.02567829	1e+10	0.009999995
3.280005649099027e-09	0.6229501	-0.7406585	-0.032227717	1e+10	0.0095094675
3.2850231270532067e-09	0.6336872	-0.7282367	-0.035695367	1e+10	0.008081621
3.290012867391483e-09	0.6461755	-0.71430695	-0.035750948	1e+10	0.00587131
3.295002609611522e-09	0.6594624	-0.7004234	-0.03240779	1e+10	0.0030886105
3.30002008560543e-09	0.6725919	-0.6881347	-0.025887456	1e+10	-1.2620155e-05
3.305010092336487e-09	0.68435884	-0.6789165	-0.01683167	1e+10	-0.0030962
3.3100000782269643e-09	0.6937335	-0.6735412	-0.006077183	1e+10	-0.0058778925
3.3150177107674453e-09	0.6996511	-0.6723046	0.0053499714	1e+10	-0.008096706
3.3200076303108507e-09	0.7011618	-0.67503816	0.016143076	1e+10	-0.009512045
3.3250252860767377e-09	0.6978524	-0.6812655	0.025313206	1e+10	-0.009999988
3.330014897193637e-09	0.68996644	-0.6902253	0.031877287	1e+10	-0.009507668
3.335004570119653e-09	0.67833644	-0.7011436	0.035307374	1e+10	-0.008088482
3.3400215806560235e-09	0.6641967	-0.71321666	0.03531257	1e+10	-0.0058668773
3.34501106225043e-09	0.6492903	-0.7253907	0.03190189	1e+10	-0.0030835588
3.3500004186578838e-09	0.6351797	-0.7367753	0.025378779	1e+10	2.630505e-07
3.3550175669279136e-09	0.6232952	-0.74642724	0.016270863	1e+10	0.0031006655
3.360007144589537e-09	0.61493224	-0.7532444	0.0055435454	1e+10	0.0058814837
3.365024603568617e-09	0.61070925	-0.7564101	-0.00583826	1e+10	0.008099247
3.3700146389773082e-09	0.61088526	-0.75529426	-0.016588932	1e+10	0.009513403
3.3750045659922854e-09	0.61519533	-0.7498034	-0.025687998	1e+10	0.01
3.3800220015377754e-09	0.6231204	-0.7403188	-0.032290578	1e+10	0.009506284
3.385011883539005e-09	0.63375926	-0.72793067	-0.035733636	1e+10	0.008085779
3.390001663392969e-09	0.64619356	-0.71399736	-0.035770535	1e+10	0.005877007
3.395018985992878e-09	0.6594875	-0.7000781	-0.032365266	1e+10	0.0030788223
3.4000087902860956e-09	0.67246884	-0.6879544	-0.025832199	1e+10	-5.5230994e-06
3.4050262904451245e-09	0.6842215	-0.6788409	-0.016682057	1e+10	-0.003105876
3.4100163697843027e-09	0.6935172	-0.6736696	-0.005886747	1e+10	-0.0058861705
3.4150066043364517e-09	0.6993414	-0.6726433	0.005510276	1e+10	-0.008092608
3.420024034969817e-09	0.70080334	-0.67557967	0.016391438	1e+10	-0.009515221
3.4250141014231734e-09	0.6974518	-0.6819246	0.025537431	1e+10	-0.009999996
3.430003749400336e-09	0.68950444	-0.69098413	0.032127783	1e+10	-0.009509837
3.4350209428148444e-09	0.6777192	-0.7020196	0.03558082	1e+10	-0.008082428
3.4400103733436524e-09	0.6635493	-0.7140364	0.035571754	1e+10	-0.0058725784
3.4450274200991357e-09	0.6484463	-0.7262489	0.032109383	1e+10	-0.00307378
3.4500168697012294e-09	0.63423324	-0.7375794	0.025530033	1e+10	1.0599544e-05
3.4550063074772455e-09	0.6223327	-0.74712217	0.01641324	1e+10	0.0030939388
3.4600234946410025e-09	0.61388385	-0.7539273	0.0055625243	1e+10	0.0058897887
3.4650133684654784e-09	0.6096944	-0.75704014	-0.005821592	1e+10	0.008095104
3.4700033702471894e-09	0.60991544	-0.75591445	-0.016635098	1e+10	0.009511219
3.475020840595321e-09	0.6143395	-0.7503804	-0.025835788	1e+10	0.009999991
3.48001077221815e-09	0.6223234	-0.7409358	-0.032443024	1e+10	0.009508471
3.4850006719374995e-09	0.633049	-0.7285371	-0.03592275	1e+10	0.008089921
3.4900180606338192e-09	0.6456215	-0.71450233	-0.035972454	1e+10	0.005868668
3.4950078430830264e-09	0.6588843	-0.7006287	-0.032581735	1e+10	0.0030854829
3.5000252762699746e-09	0.671955	-0.68841106	-0.025991332	1e+10	-1.5881542e-05
3.5050152521882795e-09	0.6836491	-0.6793314	-0.016853059	1e+10	-0.0030992827
3.5100052450900864e-09	0.6929542	-0.6741501	-0.0060092425	1e+10	-0.0058805184
3.515022939943642e-09	0.69880986	-0.6731363	0.005511255	1e+10	-0.008098634
3.5200129437326405e-09	0.70025814	-0.6760875	0.016395302	1e+10	-0.009513075
3.5250029593812545e-09	0.6969018	-0.68245834	0.025599334	1e+10	-0.01
3.5300202733872897e-09	0.688877	-0.6915945	0.032258272	1e+10	-0.009506621
3.535009763144016e-09	0.6771107	-0.70257604	0.03569755	1e+10	-0.008086563
3.5400267510689622e-09	0.6628172	-0.71463716	0.035664674	1e+10	-0.0058642463
3.545016126901185e-09	0.6477695	-0.72673285	0.032172054	1e+10	-0.0030805315
3.5500055052856176e-09	0.63356394	-0.73799694	0.025532994	1e+10	3.459073e-06
3.55502260114945e-09	0.6216644	-0.74751544	0.016287893	1e+10	0.0031036725
3.5600123912997515e-09	0.61338663	-0.75421166	0.0054162787	1e+10	0.0058841496
3.5650022807925915e-09	0.60936165	-0.75727004	-0.0060437233	1e+10	0.008091012
3.5700196749399582e-09	0.6097951	-0.7560706	-0.016985796	1e+10	0.009514378
3.575009570780053e-09	0.6144176	-0.75048333	-0.026197642	1e+10	0.009999998
3.5800272123291076e-09	0.6226631	-0.7408719	-0.032892205	1e+10	0.009505267
3.5850170486270857e-09	0.6335915	-0.72831434	-0.03639796	1e+10	0.008083869
3.590006963296813e-09	0.64626366	-0.71416545	-0.03646142	1e+10	0.0058743125
3.5950243156876714e-09	0.6597356	-0.6999985	-0.03303966	1e+10	0.003075636
3.6000141056390796e-09	0.6728401	-0.6876254	-0.026444362	1e+10	-8.862833e-06
3.6050041138030925e-09	0.6846212	-0.67833227	-0.017244274	1e+10	-0.0030926282
3.610021659037871e-09	0.6940434	-0.67295974	-0.0062513775	1e+10	-0.005888857
3.6150117046572775e-09	0.69992083	-0.67184705	0.00530798	1e+10	-0.0080944905
3.620001719963328e-09	0.70142126	-0.6747441	0.016298423	1e+10	-0.009510899
3.625019417068968e-09	0.69806594	-0.6811594	0.025646793	1e+10	-0.009999992
3.630009174963256e-09	0.6900808	-0.69029254	0.03234361	1e+10	-0.009508782
3.635026268370052e-09	0.6782228	-0.7014004	0.03585229	1e+10	-0.008080457
3.6400158279953214e-09	0.6639631	-0.7134638	0.035844415	1e+10	-0.005869804
3.6450050726851835e-09	0.64886606	-0.72561955	0.03236127	1e+10	-0.0030871385
3.6500220769178232e-09	0.63454056	-0.7369926	0.02566253	1e+10	1.3871332e-05
3.655011623474064e-09	0.6226862	-0.7464945	0.016423883	1e+10	0.0030971149
3.660001308603279e-09	0.6144101	-0.7532254	0.0054944605	1e+10	0.005878518
3.6650188273844894e-09	0.61041087	-0.756316	-0.006102897	1e+10	0.008097118
3.67000868216672e-09	0.61092246	-0.7551217	-0.017066102	1e+10	0.009512249
3.6750262147108516e-09	0.61567676	-0.74947643	-0.02640808	1e+10	0.009999987
3.6800161398638134e-09	0.6239989	-0.7398588	-0.033133812	1e+10	0.009507427
3.6850060014821057e-09	0.63504785	-0.7272157	-0.036696464	1e+10	0.008087953
3.6900234938923526e-09	0.6479098	-0.71286833	-0.036781512	1e+10	0.0058659036
3.6950131209832083e-09	0.66140926	-0.6986386	-0.03337095	1e+10	0.0030823282
3.700002971075992e-09	0.67459345	-0.6861119	-0.026748585	1e+10	-1.8667821e-06
3.7050205886355896e-09	0.6864917	-0.676631	-0.017438052	1e+10	-0.0031024704
3.710010594505434e-09	0.6958929	-0.67118025	-0.0064253663	1e+10	-0.0058832364
3.715000703571217e-09	0.7017908	-0.66999227	0.005227948	1e+10	-0.00809043
3.7200181584785074e-09	0.7032851	-0.67289484	0.01638024	1e+10	-0.009514085
3.725008209558276e-09	0.6999041	-0.6793203	0.025778946	1e+10	-0.009999999
3.730025519871946e-09	0.6917938	-0.68859816	0.032607086	1e+10	-0.009505598
3.735015043362792e-09	0.6798783	-0.6997763	0.036176678	1e+10	-0.008084611
3.74000452709384e-09	0.66546226	-0.71199	0.03623863	1e+10	-0.005875551
3.745021426358776e-09	0.65009063	-0.7243711	0.03277142	1e+10	-0.0030773634
3.750010947781884e-09	0.6356396	-0.7358341	0.026115637	1e+10	6.8786935e-06
3.755000324139604e-09	0.6235826	-0.74548435	0.016861526	1e+10	0.0030903637
3.760017667763245e-09	0.61509377	-0.752387	0.005824872	1e+10	0.00588683
3.765007639403661e-09	0.6109917	-0.7555892	-0.0057753837	1e+10	0.00809299
3.77002520007813e-09	0.61142683	-0.7545117	-0.0168768	1e+10	0.009515446
3.775015060462345e-09	0.61611974	-0.74901104	-0.026248358	1e+10	0.009999995
3.780005157732489e-09	0.6244329	-0.7395009	-0.033059016	1e+10	0.009509563
3.785022600187007e-09	0.6355662	-0.72686243	-0.036708813	1e+10	0.008081815
3.7900124599465915e-09	0.6483929	-0.7126332	-0.03684794	1e+10	0.005871517
3.795002144758438e-09	0.6619277	-0.69840074	-0.03348597	1e+10	0.0030888882
3.8000196519802586e-09	0.6752138	-0.68576443	-0.026847936	1e+10	-1.23477e-05
3.8050096035015215e-09	0.6870668	-0.6762635	-0.017587159	1e+10	-0.003095908
3.810027133662835e-09	0.6965286	-0.6706972	-0.0064898264	1e+10	-0.0058916365
3.815017207323946e-09	0.7024135	-0.6694439	0.005208601	1e+10	-0.00809652
3.820007094638443e-09	0.7038836	-0.6722806	0.016360011	1e+10	-0.009511942
3.8250246402953276e-09	0.7004485	-0.67872834	0.025877181	1e+10	-0.009999988
3.830014350408633e-09	0.69232315	-0.6879827	0.032733653	1e+10	-0.009507775
3.835003887193827e-09	0.6803327	-0.6992179	0.036370292	1e+10	-0.008088734
3.840020976561683e-09	0.6657324	-0.7115842	0.03647718	1e+10	-0.0058671846
3.845010428806336e-09	0.6503273	-0.72399557	0.03305651	1e+10	-0.0030839373
3.850027341158387e-09	0.63567966	-0.73562455	0.026374582	1e+10	1.7178949e-05
3.855016875890949e-09	0.6235236	-0.7453741	0.017107489	1e+10	0.0031002527
3.860006470152406e-09	0.61499095	-0.75234884	0.0061105313	1e+10	0.005881141
3.8650239212319e-09	0.6107937	-0.7556853	-0.005585484	1e+10	0.008098995
3.870013969766888e-09	0.611171	-0.75473344	-0.016667642	1e+10	0.009513274
3.8750039738627995e-09	0.6158115	-0.7493588	-0.026093125	1e+10	0.01
3.880021516244667e-09	0.6241409	-0.73989403	-0.032993864	1e+10	0.009506379
3.885011408792367e-09	0.6351968	-0.7273913	-0.036679786	1e+10	0.008085954
3.8900011940710605e-09	0.6480155	-0.7131899	-0.03688588	1e+10	0.0058772457
3.895018610038724e-09	0.6616321	-0.69885564	-0.033559754	1e+10	0.0030790472
3.900008462620951e-09	0.67486197	-0.6862183	-0.027002633	1e+10	-5.317221e-06
3.9050259749546065e-09	0.6868038	-0.67656064	-0.017719693	1e+10	-0.0031056877
3.910016015668266e-09	0.696245	-0.6709074	-0.0066910186	1e+10	-0.005885991
3.915006052413711e-09	0.7021786	-0.6695329	0.0050178217	1e+10	-0.008092404
3.920023524291019e-09	0.70370084	-0.6722972	0.016255217	1e+10	-0.0095151225
3.925013537722662e-09	0.7003324	-0.67864996	0.025752861	1e+10	-0.009999996
3.930003156339958e-09	0.6922687	-0.6878633	0.03265174	1e+10	-0.009509952
3.935020467403665e-09	0.68026143	-0.6991483	0.036342114	1e+10	-0.008082604
3.9400099380563514e-09	0.6657877	-0.71145207	0.036480285	1e+10	-0.0058727995
3.945026812719815e-09	0.65034103	-0.72395015	0.033071656	1e+10	-0.003074143
3.950016276003527e-09	0.6358049	-0.73554593	0.026454166	1e+10	1.0226513e-05
3.955005718779873e-09	0.62365615	-0.7453413	0.01721638	1e+10	0.003093587
3.9600229779434096e-09	0.6150716	-0.7524023	0.0061730277	1e+10	0.0058895266
3.965012934958775e-09	0.6108719	-0.7557727	-0.005457704	1e+10	0.008094944
3.970002868808054e-09	0.61119515	-0.7548827	-0.016553894	1e+10	0.0095111225
3.9750204003158745e-09	0.6158097	-0.7495184	-0.026052898	1e+10	0.009999991
3.980010395765877e-09	0.6240417	-0.74012804	-0.032944225	1e+10	0.009508545
3.985000277544688e-09	0.6350459	-0.7276336	-0.036669716	1e+10	0.008090068