# t (s)	mx ()	my ()	mz ()	J-freq (Hz)	B_ext (T)
1e-09	0.49732018	-0.81780875	-0.045041963	1e+10	2.4492935e-17
1.010010510019381e-09	0.54705614	-0.7895577	-0.04090026	1e+10	-0.0058831936
1.0200191868244595e-09	0.59225523	-0.76550066	-0.028322438	1e+10	-0.009514283
1.0300004784157105e-09	0.6240467	-0.74892914	-0.014129327	1e+10	-0.009510472
1.0400085600344084e-09	0.63987994	-0.7407243	-0.003929315	1e+10	-0.0058735004
1.0500166452401584e-09	0.64372146	-0.7382481	-0.0015163192	1e+10	1.0458511e-05
1.0600254453409504e-09	0.64397186	-0.7350697	-0.00832961	1e+10	0.005890779
1.0700079545490493e-09	0.6493734	-0.72409964	-0.021845877	1e+10	0.009512109
1.0800174620565443e-09	0.66578746	-0.7013649	-0.035756413	1e+10	0.009507169
1.0900249823462577e-09	0.69419616	-0.66927874	-0.043318756	1e+10	0.0058651464
1.1000045783935311e-09	0.7301228	-0.63479817	-0.041289847	1e+10	-2.8766895e-06
1.1100117009426402e-09	0.76502573	-0.60387254	-0.030215163	1e+10	-0.005883799
1.12001759663214e-09	0.7892916	-0.58152044	-0.0133979805	1e+10	-0.009513976
1.1300221338142468e-09	0.7976453	-0.57182693	0.003728188	1e+10	-0.009506258
1.1400254122686153e-09	0.79071563	-0.57482886	0.015016267	1e+10	-0.0058649275
1.1500017083933468e-09	0.77421725	-0.58523846	0.016936863	1e+10	1.0734152e-06
1.1600071879163973e-09	0.7573106	-0.59556735	0.009633019	1e+10	0.0058815056
1.1700142397571698e-09	0.74983406	-0.5995712	-0.003494187	1e+10	0.009513326
1.1800230232129492e-09	0.75687766	-0.59523207	-0.015855893	1e+10	0.009506085
1.1900049386318314e-09	0.77500963	-0.5849446	-0.021156382	1e+10	0.005875342
1.2000140093772297e-09	0.795009	-0.57308555	-0.016859055	1e+10	-8.80235e-06
1.2100220003491175e-09	0.8072351	-0.5654715	-0.003938654	1e+10	-0.00588903
1.2200010681828386e-09	0.8049935	-0.5685258	0.013978306	1e+10	-0.009510772
1.2300077508444954e-09	0.7858959	-0.5855004	0.030964486	1e+10	-0.009509059
1.240015448783066e-09	0.753343	-0.61330277	0.039914697	1e+10	-0.0058699967
1.2500235672750073e-09	0.7168669	-0.6442356	0.036633488	1e+10	1.4807751e-05
1.2600038046656785e-09	0.6894746	-0.67039335	0.022809632	1e+10	0.0058797863
1.27001243887458e-09	0.6798384	-0.6867609	0.0048079826	1e+10	0.009512978
1.2800213097959396e-09	0.6863444	-0.690518	-0.010089181	1e+10	0.009506419
1.2900018889050737e-09	0.7005111	-0.6830691	-0.016595814	1e+10	0.0058768922
1.3000087323064774e-09	0.71401954	-0.6716637	-0.012127924	1e+10	-5.4866696e-06
1.3100146970121731e-09	0.71919054	-0.6659074	0.0020948064	1e+10	-0.0058853207
1.3200203694600702e-09	0.70947415	-0.67262566	0.020393064	1e+10	-0.0095145125
1.3300260031476429e-09	0.6834194	-0.6930377	0.035036184	1e+10	-0.009505504
1.3400047661423548e-09	0.64718014	-0.7224019	0.039888468	1e+10	-0.0058754296
1.3500117089186015e-09	0.6117271	-0.75285584	0.032916114	1e+10	7.35693e-06
1.3600193587780541e-09	0.5879235	-0.7763621	0.016975945	1e+10	0.0058876886
1.3700267155057e-09	0.58082855	-0.7866361	-0.0020872236	1e+10	0.009515739
1.3800059819941217e-09	0.5893112	-0.78076726	-0.018411461	1e+10	0.009509403
1.3900121501518796e-09	0.60853624	-0.7607899	-0.02723296	1e+10	0.0058716745
1.4000182466864972e-09	0.6309135	-0.7346213	-0.024702955	1e+10	-1.1464729e-05
1.4100249557863755e-09	0.64819765	-0.71486425	-0.010974459	1e+10	-0.005890531
1.4200049179558688e-09	0.6539276	-0.7118089	0.007846526	1e+10	-0.009511519
1.4300134505474339e-09	0.6450943	-0.7267493	0.023327034	1e+10	-0.00950795
1.4400216135005875e-09	0.62404096	-0.7524042	0.02916026	1e+10	-0.0058668605
1.4500013258131547e-09	0.59866554	-0.7772265	0.02348923	1e+10	8.3303297e-07
1.4600085573888315e-09	0.5794758	-0.7915993	0.008001892	1e+10	0.0058822017
1.470016236212632e-09	0.5755073	-0.7904066	-0.0124698775	1e+10	0.0095137125
1.4800241563756727e-09	0.5900106	-0.7724464	-0.030866086	1e+10	0.009505864
1.4900038639923314e-09	0.61920536	-0.7412002	-0.04001327	1e+10	0.0058758883
1.500010568797139e-09	0.65421754	-0.7061075	-0.03597296	1e+10	-6.6405705e-06
1.51001804061949e-09	0.68464404	-0.6801467	-0.020311518	1e+10	-0.005887019
1.5200263854000013e-09	0.70210266	-0.67226356	0.0007432837	1e+10	-0.009515675
1.530006137637155e-09	0.70142376	-0.6828367	0.019413516	1e+10	-0.0095093725
1.5400120358735972e-09	0.68325627	-0.70547163	0.029174156	1e+10	-0.0058717327
1.5500173098245798e-09	0.65532523	-0.72975785	0.026272304	1e+10	1.0876081e-05
1.5600234497535118e-09	0.62965107	-0.7452932	0.011606396	1e+10	0.005889766
1.570002640773144e-09	0.61818755	-0.7458921	-0.008923944	1e+10	0.009511078
1.5800096517919368e-09	0.6272933	-0.7315364	-0.027030652	1e+10	0.00950869
1.5900175337976544e-09	0.65428066	-0.70714533	-0.03571304	1e+10	0.005868936
1.6000263989884218e-09	0.6888969	-0.68034613	-0.03191799	1e+10	-1.6586966e-05
1.6100071177998266e-09	0.7184909	-0.659487	-0.01721142	1e+10	-0.00588147
1.6200144550884384e-09	0.7331478	-0.6512252	0.0033650133	1e+10	-0.009513368
1.6300206986269041e-09	0.7277164	-0.65875673	0.022500413	1e+10	-0.0095065385
1.6400270129678646e-09	0.7037957	-0.67947555	0.033065643	1e+10	-0.0058641126
1.650005868527602e-09	0.6701715	-0.7050046	0.030856485	1e+10	3.6873046e-06
1.660012583556794e-09	0.6401825	-0.7256009	0.016649177	1e+10	0.0058842474
1.6700200450355463e-09	0.6263354	-0.7346451	-0.0032951992	1e+10	0.009514449
1.6800011920708933e-09	0.6331441	-0.73048776	-0.020695627	1e+10	0.009510334
1.690010042874899e-09	0.6559271	-0.71511024	-0.029613376	1e+10	0.0058727465
1.7000174844579818e-09	0.6849215	-0.69372106	-0.027152883	1e+10	-1.09858065e-05
1.710023722315091e-09	0.70934886	-0.67427903	-0.01395397	1e+10	-0.0058899047
1.7200024118362517e-09	0.7197768	-0.66457486	0.0051315795	1e+10	-0.009511033
1.7300089183000808e-09	0.71159583	-0.6688564	0.022258127	1e+10	-0.009508832
1.7400155739196845e-09	0.6883242	-0.6858263	0.029745553	1e+10	-0.005869933
1.750022255725448e-09	0.66094315	-0.7084195	0.024639497	1e+10	1.398368e-05
1.7600018862729827e-09	0.64142644	-0.7274262	0.009880789	1e+10	0.0058788112
1.7700095983596149e-09	0.6362262	-0.73545426	-0.008180737	1e+10	0.009512427
1.7800172755328786e-09	0.64566565	-0.7290141	-0.02287163	1e+10	0.009507205
1.7900241917379621e-09	0.66588575	-0.71044886	-0.029289275	1e+10	0.0058655487
1.8000034882362971e-09	0.69023603	-0.68685806	-0.025047783	1e+10	-2.1917235e-06
1.8100104951279221e-09	0.71025825	-0.6669267	-0.011259193	1e+10	-0.005883186
1.8200179390516114e-09	0.7180506	-0.65851194	0.006895503	1e+10	-0.009514042
1.8300250834874224e-09	0.71065855	-0.66498625	0.02179234	1e+10	-0.009505684
1.8400043278556181e-09	0.69201046	-0.6833725	0.027337123	1e+10	-0.005875652
1.8500110914974835e-09	0.670232	-0.7060572	0.021828463	1e+10	6.9689927e-06
1.8600181910174458e-09	0.65393394	-0.7236575	0.007592451	1e+10	0.0058870954
1.870025561296474e-09	0.6489471	-0.7284932	-0.0099538565	1e+10	0.0095155155
1.8800052020438398e-09	0.65687	-0.7180022	-0.024003498	1e+10	0.009509555
1.8900125419181354e-09	0.67503464	-0.69639295	-0.028977687	1e+10	0.005871475
1.900020153088973e-09	0.6970831	-0.6729742	-0.02236096	1e+10	-1.26625555e-05
1.9100005306873866e-09	0.71465266	-0.6578969	-0.006334288	1e+10	-0.005878122
1.9200080914549894e-09	0.72011745	-0.6573101	0.012783091	1e+10	-0.009512135
1.9300149910019806e-09	0.7098755	-0.6711925	0.02728396	1e+10	-0.0095076505
1.9400211191612865e-09	0.6870029	-0.6943812	0.031867955	1e+10	-0.005867112
1.950027249482479e-09	0.66003764	-0.7189324	0.025019486	1e+10	1.7121347e-05
1.960006226092017e-09	0.6390917	-0.7361973	0.009212848	1e+10	0.005881017
1.970013310002662e-09	0.63120425	-0.73974204	-0.009536734	1e+10	0.009513146
1.980020831429039e-09	0.63812536	-0.72847086	-0.02353831	1e+10	0.009506512
1.9900005053596193e-09	0.6558956	-0.708261	-0.027157178	1e+10	0.005877596
2.000007932169542e-09	0.6773983	-0.68898904	-0.019068457	1e+10	-4.983929e-06
2.010015642497009e-09	0.6940806	-0.67959	-0.002462725	1e+10	-0.0058858013
2.020023215604956e-09	0.6978136	-0.68372154	0.016204378	1e+10	-0.009515063
2.0300025630550932e-09	0.684702	-0.69973326	0.029826997	1e+10	-0.009510067
2.0400091206827417e-09	0.6583179	-0.72271526	0.033196047	1e+10	-0.0058732154
2.0500155852924112e-09	0.6288504	-0.74555284	0.02459227	1e+10	9.792527e-06
2.060022364396455e-09	0.60764647	-0.76067924	0.0071218964	1e+10	0.005889215
2.070002115880434e-09	0.60171705	-0.7623724	-0.012344623	1e+10	0.009510976
2.0800095256116115e-09	0.61168087	-0.7496606	-0.026512977	1e+10	0.009508714
2.090016924253823e-09	0.632839	-0.7277303	-0.030236108	1e+10	0.005869246
2.100024119286752e-09	0.6575148	-0.7061174	-0.022152288	1e+10	-1.5154589e-05
2.110003669225722e-09	0.6770917	-0.6940633	-0.0052868403	1e+10	-0.0058797174
2.1200108678046523e-09	0.6834535	-0.6955787	0.013826927	1e+10	-0.009512673
2.1300182777024366e-09	0.67253274	-0.70918876	0.027626768	1e+10	-0.00950701
2.1400249629976636e-09	0.64854914	-0.72991437	0.030590972	1e+10	-0.005865156
2.1500038730231866e-09	0.62226623	-0.75055444	0.021190917	1e+10	2.4334922e-06
2.1600107325296776e-09	0.6050113	-0.7635382	0.002723869	1e+10	0.0058833067
2.17001837899613e-09	0.60363793	-0.7625531	-0.017605912	1e+10	0.009514127
2.1800259904114774e-09	0.61824167	-0.745871	-0.03206294	1e+10	0.009505507
2.1900055461532667e-09	0.6436521	-0.7188549	-0.03548661	1e+10	0.005875033
2.200012496546393e-09	0.6720284	-0.69193375	-0.026491208	1e+10	-7.851811e-06
2.2100199840712367e-09	0.69442993	-0.67569333	-0.008085983	1e+10	-0.005888006
2.2200004120009567e-09	0.70269185	-0.6749178	0.012587687	1e+10	-0.009510645
2.2300075919637177e-09	0.6930645	-0.68806005	0.027560038	1e+10	-0.00950909
2.2400139852240475e-09	0.6697751	-0.7096627	0.03117742	1e+10	-0.0058707413
2.250020166647741e-09	0.6431927	-0.7319025	0.0221278	1e+10	1.2671075e-05
2.260026988641173e-09	0.62469065	-0.7463138	0.0037266305	1e+10	0.005891563
2.270006782633755e-09	0.621804	-0.74616575	-0.016810019	1e+10	0.0095118815
2.2800141027290425e-09	0.635429	-0.72992015	-0.031597506	1e+10	0.009507823
2.2900215454887637e-09	0.6605636	-0.70324516	-0.035172433	1e+10	0.005866895
2.300001710495298e-09	0.68875414	-0.67691416	-0.026144147	1e+10	-1.0747359e-06
2.3100097145197282e-09	0.710932	-0.6609961	-0.007394833	1e+10	-0.0058827894
2.320017388845474e-09	0.7184714	-0.66048014	0.014118969	1e+10	-0.009513936
2.3300241469902792e-09	0.7071558	-0.6746037	0.030132838	1e+10	-0.009505866
2.340002828304833e-09	0.68089736	-0.69822854	0.034700565	1e+10	-0.005876415
2.3500091323458663e-09	0.65008616	-0.7233776	0.026116697	1e+10	5.7380216e-06
2.360015696442681e-09	0.6274037	-0.7409847	0.007560512	1e+10	0.0058858283
2.3700228896335324e-09	0.62135506	-0.7442042	-0.013460164	1e+10	0.009515
2.3800030948769018e-09	0.63266164	-0.7316345	-0.02868444	1e+10	0.009509964
2.390010918840572e-09	0.6559063	-0.70845896	-0.03281575	1e+10	0.005872301
2.4000182618537133e-09	0.68257356	-0.6846098	-0.02431102	1e+10	-1.1474259e-05
2.4100255479901087e-09	0.70346415	-0.66985154	-0.0059966864	1e+10	-0.0058908314
2.420005042338286e-09	0.70990974	-0.6693578	0.015038864	1e+10	-0.009511543
2.4300121401278817e-09	0.6976338	-0.6829352	0.030523472	1e+10	-0.009508206
2.4400188329357095e-09	0.67078847	-0.70599383	0.03450418	1e+10	-0.005868275
2.4500253608870876e-09	0.6405641	-0.7307674	0.025485603	1e+10	1.593471e-05
2.4600047559667475e-09	0.6193424	-0.74850297	0.0069869086	1e+10	0.0058802697
2.470012216552507e-09	0.61415505	-0.75231373	-0.013669779	1e+10	0.009512934
2.4800196532625726e-09	0.62503034	-0.74008834	-0.028548947	1e+10	0.0095067425
2.490026851135713e-09	0.6470634	-0.716827	-0.03251505	1e+10	0.005864195
2.500006451464276e-09	0.6727249	-0.69261026	-0.024154754	1e+10	-4.0535742e-06
2.5100137465068416e-09	0.6934033	-0.6773387	-0.006171399	1e+10	-0.005884838
2.520021280773851e-09	0.70043087	-0.67644835	0.01434854	1e+10	-0.0095146885
2.5300008860533875e-09	0.68973786	-0.6893112	0.029011518	1e+10	-0.009510393
2.5400076515650636e-09	0.6655663	-0.711204	0.03243722	1e+10	-0.0058739623
2.550014139391053e-09	0.63842535	-0.73474187	0.023477126	1e+10	8.884041e-06
2.5600210285019547e-09	0.61928964	-0.75138223	0.005367679	1e+10	0.0058885366
2.5700006736111214e-09	0.6147427	-0.7538003	-0.014916012	1e+10	0.009510696
2.580008156861395e-09	0.6253422	-0.7398139	-0.029592913	1e+10	0.00950898
2.5900154257356753e-09	0.64698184	-0.71489817	-0.03313588	1e+10	0.0058700084
2.600022572880543e-09	0.6725185	-0.68995994	-0.024148539	1e+10	-1.4182954e-05
2.610002492768193e-09	0.6932133	-0.67553115	-0.0058056414	1e+10	-0.0058791195
2.620010233268102e-09	0.7006064	-0.676162	0.014790233	1e+10	-0.00951255
2.6300174576167337e-09	0.6903308	-0.69017357	0.029434483	1e+10	-0.00950717
2.640024061893961e-09	0.6663703	-0.7123549	0.03281035	1e+10	-0.005865615
2.6500027865762444e-09	0.639032	-0.735557	0.023803508	1e+10	1.7508575e-06
2.660009477548538e-09	0.61912584	-0.75167465	0.0055116336	1e+10	0.0058826692
2.670016862595495e-09	0.61376953	-0.7534081	-0.014993665	1e+10	0.009513834
2.680024221025889e-09	0.62389994	-0.7389524	-0.029487845	1e+10	0.009505851
2.6900037314759742e-09	0.64506793	-0.7144849	-0.03250671	1e+10	0.005875956
2.7000109853586736e-09	0.670032	-0.6910747	-0.023049336	1e+10	-6.902304e-06
2.710018869591391e-09	0.69017875	-0.67883736	-0.00451947	1e+10	-0.0058874404
2.7200265317580986e-09	0.6969183	-0.68129057	0.015959334	1e+10	-0.009515704
2.730006149062087e-09	0.6858237	-0.69604164	0.030410713	1e+10	-0.009509371
2.740012676852119e-09	0.6608099	-0.7181065	0.03352735	1e+10	-0.0058714068
2.7500190673255466e-09	0.6324527	-0.7407611	0.02400092	1e+10	1.1980351e-05
2.7600257777369656e-09	0.6122606	-0.7562245	0.00515043	1e+10	0.005890948
2.7700056308058557e-09	0.6074765	-0.7575744	-0.015628316	1e+10	0.009511658
2.780012905813532e-09	0.6185765	-0.7430151	-0.030206673	1e+10	0.009508057
2.7900201001449707e-09	0.64062005	-0.7183924	-0.033222638	1e+10	0.0058676307
2.8000273338637373e-09	0.66604125	-0.69478905	-0.023660596	1e+10	-1.7174365e-05
2.810007357318078e-09	0.686387	-0.68235385	-0.0049190144	1e+10	-0.0058815917
2.8200148297598243e-09	0.69327134	-0.6845761	0.015876736	1e+10	-0.009513441
2.830022072562677e-09	0.68213004	-0.69906706	0.030426193	1e+10	-0.00950627
2.840001239982316e-09	0.6572771	-0.72052693	0.033175044	1e+10	-0.0058772224
2.850007550997979e-09	0.62960935	-0.7423928	0.02303724	1e+10	4.744432e-06
2.8600146049097915e-09	0.61099195	-0.7570386	0.0036018682	1e+10	0.005885274
2.8700220088777066e-09	0.608354	-0.7575121	-0.017600704	1e+10	0.009514829
2.8800018374668718e-09	0.6214602	-0.7417026	-0.03228517	1e+10	0.009510208
2.8900089348870724e-09	0.6450414	-0.71524274	-0.035215795	1e+10	0.00587331
2.900016091271841e-09	0.6714832	-0.68966436	-0.025222082	1e+10	-1.0110442e-05
2.9100236847044964e-09	0.6924864	-0.6757531	-0.005701871	1e+10	-0.0058898856
2.9200037952496513e-09	0.6996447	-0.67742336	0.015774772	1e+10	-0.009511302
2.9300111585464763e-09	0.6885528	-0.6921324	0.030786576	1e+10	-0.0095083965
2.940017601412582e-09	0.66350013	-0.7142321	0.03365095	1e+10	-0.005868902
2.950023963610215e-09	0.6356729	-0.73668313	0.023394229	1e+10	1.5056775e-05
2.9600031374239127e-09	0.61703956	-0.7516966	0.0037650445	1e+10	0.0058794473
2.9700105389384763e-09	0.61451703	-0.7522758	-0.017796604	1e+10	0.009512609
2.980017921859967e-09	0.62802076	-0.7361289	-0.03285007	1e+10	0.00950708
2.990025407156149e-09	0.6520705	-0.7091285	-0.035850327	1e+10	0.00586493
3.0000052323687143e-09	0.67876023	-0.68308574	-0.025648959	1e+10	-3.2875942e-06
3.0100128774898597e-09	0.6998319	-0.6688285	-0.0056652464	1e+10	-0.0058843964
3.0200205654657705e-09	0.70673215	-0.67063	0.016455656	1e+10	-0.009514551
3.0300001106920507e-09	0.6949023	-0.68604964	0.03200943	1e+10	-0.009510544
3.040006452325143e-09	0.6684361	-0.70938945	0.03534945	1e+10	-0.0058745723
3.0500127419123147e-09	0.6386925	-0.7332292	0.025252264	1e+10	8.005979e-06
3.0600195301664504e-09	0.6182334	-0.74955666	0.0053216843	1e+10	0.0058877757
3.0700267840410963e-09	0.61457324	-0.7512834	-0.016701488	1e+10	0.009515752
3.0800068986380474e-09	0.62749153	-0.73627925	-0.032162562	1e+10	0.009509224
3.090014250980337e-09	0.65131927	-0.7101766	-0.035511516	1e+10	0.0058706063
3.1000216012515556e-09	0.6779494	-0.6844818	-0.025469208	1e+10	-1.3572462e-05
3.11000137983454e-09	0.6988083	-0.6702074	-0.0055423174	1e+10	-0.0058785537
3.1200090585224997e-09	0.7054828	-0.67181194	0.016705617	1e+10	-0.009512322
3.130016200939621e-09	0.69319737	-0.6872797	0.03243144	1e+10	-0.009507415
3.140022829642752e-09	0.6661784	-0.7108596	0.035821542	1e+10	-0.0058662416
3.1500017763197586e-09	0.636099	-0.73500144	0.0257343	1e+10	1.1160946e-06
3.1600085383785794e-09	0.6154327	-0.7518296	0.0057458384	1e+10	0.005882192
3.1700159879064827e-09	0.611593	-0.7541817	-0.016367016	1e+10	0.009513665
3.180023443571473e-09	0.6242727	-0.7396415	-0.03200138	1e+10	0.009506003
3.190003092096205e-09	0.64778286	-0.7137347	-0.035563327	1e+10	0.005876281
3.200010315716466e-09	0.67437756	-0.68765223	-0.025802897	1e+10	-6.4815554e-06
3.210017787583527e-09	0.6954944	-0.6726834	-0.0059805037	1e+10	-0.0058868905
3.220025211574261e-09	0.70255685	-0.6737684	0.016231548	1e+10	-0.0095154485
3.2300048976723672e-09	0.69092077	-0.68882275	0.03191702	1e+10	-0.009509614
3.240011590051354e-09	0.6647312	-0.7121144	0.035368398	1e+10	-0.0058719595
3.2500181141830238e-09	0.6353919	-0.7361752	0.025401348	1e+10	1.1381474e-05
3.2600247726733378e-09	0.6151705	-0.75296694	0.005575895	1e+10	0.005890438
3.270004703931689e-09	0.61124814	-0.75525767	-0.016435701	1e+10	0.009511478
3.2800121646108088e-09	0.62357366	-0.7404757	-0.032145865	1e+10	0.009508201
3.290019550201068e-09	0.6468967	-0.7140573	-0.035756774	1e+10	0.00586791
3.300026725966472e-09	0.67345244	-0.6876206	-0.02596893	1e+10	-1.6792412e-05
3.310006671510998e-09	0.6946653	-0.67265767	-0.0061848564	1e+10	-0.0058812434
3.3200142610315024e-09	0.7020836	-0.67391574	0.016044477	1e+10	-0.009513331
3.330021526072171e-09	0.6908689	-0.6891369	0.031826425	1e+10	-0.009506377
3.3400004507566475e-09	0.66515684	-0.71234065	0.03538162	1e+10	-0.0058776233
3.350006858046483e-09	0.63593376	-0.7363506	0.025587939	1e+10	4.3090376e-06
3.3600135871702266e-09	0.61536485	-0.7531453	0.0058862674	1e+10	0.005884757
3.37002095971295e-09	0.6108437	-0.75542593	-0.016169015	1e+10	0.009514626
3.3800008345392447e-09	0.6225945	-0.7407141	-0.031839438	1e+10	0.0095104035
3.390008104290909e-09	0.64548135	-0.71454334	-0.03542243	1e+10	0.0058737323
3.40001536832211e-09	0.6717061	-0.68866706	-0.025624715	1e+10	-9.6562e-06
3.410023030861704e-09	0.6927794	-0.6744358	-0.0058502057	1e+10	-0.0058895536
3.4200032346256782e-09	0.7001234	-0.6762693	0.016224656	1e+10	-0.009511193
3.430010408521478e-09	0.68892384	-0.69163644	0.031966183	1e+10	-0.009508542
3.4400169639362237e-09	0.6630696	-0.7147225	0.035495974	1e+10	-0.005869226
3.4500234278696003e-09	0.6336863	-0.7384072	0.025636591	1e+10	1.4720159e-05
3.46000245611359e-09	0.6130221	-0.7548953	0.005927384	1e+10	0.005879101
3.4700098247604717e-09	0.60847247	-0.75709	-0.016183274	1e+10	0.009512471
3.4800172717191367e-09	0.62035227	-0.7423786	-0.031925816	1e+10	0.009507206
3.4900244850961e-09	0.6432983	-0.7163185	-0.03551412	1e+10	0.0058653993
3.500004004426153e-09	0.6694268	-0.69065326	-0.025763093	1e+10	-2.516055e-06
3.5100115260830545e-09	0.6905167	-0.67653733	-0.0059904177	1e+10	-0.00588371
3.52001922896859e-09	0.69795966	-0.6784274	0.016173294	1e+10	-0.009514292
3.530026535468312e-09	0.68684906	-0.69367766	0.031878218	1e+10	-0.0095053995
3.5400055567727248e-09	0.66123664	-0.716334	0.03526018	1e+10	-0.0058750277
3.550012044279204e-09	0.63222826	-0.7394973	0.025208237	1e+10	7.567643e-06
3.560018914127306e-09	0.61218935	-0.7555198	0.0052632876	1e+10	0.0058874628
3.5700263448200573e-09	0.60852057	-0.75725335	-0.016949542	1e+10	0.009515667
3.580006092288888e-09	0.6211353	-0.7420941	-0.032681346	1e+10	0.009509382
3.5900133422027597e-09	0.6445928	-0.7154291	-0.036229365	1e+10	0.005871068
3.6000205138208438e-09	0.6710767	-0.68908894	-0.026281808	1e+10	-1.288921e-05
3.6100005069528603e-09	0.6922643	-0.6746137	-0.006322042	1e+10	-0.0058781104
3.620008020871017e-09	0.6998301	-0.6763688	0.016078904	1e+10	-0.009512121
3.6300153880677878e-09	0.6887852	-0.69167286	0.03194216	1e+10	-0.009507573
3.6400218688600312e-09	0.6631106	-0.7144599	0.035345178	1e+10	-0.0058667306
3.6500007974413127e-09	0.63423896	-0.7375468	0.025230737	1e+10	5.0104717e-07
3.6600077019990624e-09	0.6143826	-0.7535037	0.0051482785	1e+10	0.005881767
3.6700150599496557e-09	0.611047	-0.75510794	-0.017239098	1e+10	0.009513485
3.68002248046311e-09	0.62413126	-0.73964	-0.03314934	1e+10	0.009506191
3.690002237065174e-09	0.64790773	-0.7126897	-0.036691904	1e+10	0.0058767153
3.70000934578038e-09	0.6746027	-0.686007	-0.026603295	1e+10	-5.8721266e-06
3.7100169808287206e-09	0.6958698	-0.67130893	-0.006331007	1e+10	-0.0058864807
3.720024453600151e-09	0.7032645	-0.67314327	0.016356423	1e+10	-0.009515302
3.730004258118845e-09	0.691888	-0.6887264	0.03243795	1e+10	-0.009509738
3.740010938970766e-09	0.66562086	-0.71198833	0.03601919	1e+10	-0.0058722906
3.750017279233852e-09	0.6359569	-0.7356032	0.02586409	1e+10	1.0856861e-05
3.760023920839751e-09	0.6155839	-0.7519239	0.0055974214	1e+10	0.0058900053
3.770003731525578e-09	0.6120707	-0.75385284	-0.016967425	1e+10	0.009511289
3.780011458848415e-09	0.6252202	-0.7386963	-0.033094846	1e+10	0.009508338
3.790018649038309e-09	0.6492227	-0.71185887	-0.036768205	1e+10	0.005868369
3.800025824202914e-09	0.6759963	-0.68517345	-0.026684912	1e+10	-1.6225818e-05
3.810005857691383e-09	0.69716334	-0.67034465	-0.006378782	1e+10	-0.00588083
3.8200134745753215e-09	0.70441294	-0.6720345	0.016480573	1e+10	-0.009513178
3.830020646868419e-09	0.692687	-0.687754	0.03277264	1e+10	-0.009506549
3.840027150332833e-09	0.6659689	-0.7113033	0.036426	1e+10	-0.005864043
3.850006061250953e-09	0.63597596	-0.7351817	0.026276732	1e+10	3.8083963e-06
3.8600130414610314e-09	0.61536425	-0.7518339	0.005916164	1e+10	0.0058844797
3.870020231030746e-09	0.61180496	-0.7540948	-0.016833747	1e+10	0.0095144855
3.88000023897618e-09	0.62495744	-0.73924696	-0.03305097	1e+10	0.009510519
3.890007584878871e-09	0.6490181	-0.71247685	-0.036889862	1e+10	0.0058739963
3.900014764502168e-09	0.6758812	-0.6855322	-0.026941627	1e+10	-9.276809e-06
3.910022291200154e-09	0.6971904	-0.6702256	-0.006592489	1e+10	-0.005889178
3.920002263652152e-09	0.70450103	-0.6715791	0.01629733	1e+10	-0.009511004
3.930009485400256e-09	0.6928769	-0.68719506	0.032718137	1e+10	-0.0095087215
3.940016123748495e-09	0.66624665	-0.7108395	0.036485966	1e+10	-0.0058696535
3.950022601019389e-09	0.6362299	-0.734974	0.026384681	1e+10	1.4200635e-05
3.960001736207618e-09	0.61565155	-0.75179523	0.0061133914	1e+10	0.005878735
3.970009229898188e-09	0.611944	-0.7542636	-0.01667816	1e+10	0.009512356
3.980016725612018e-09	0.6249801	-0.7394495	-0.033034187	1e+10	0.009507312
3.99002403099261e-09	0.64897156	-0.71258205	-0.036954146	1e+10	0.00586563
4.000003635967743e-09	0.67578095	-0.68549883	-0.02709651	1e+10	-2.2845459e-06
4.010011076087107e-09	0.6971763	-0.6699679	-0.006767495	1e+10	-0.0058834814
4.020018764579268e-09	0.704623	-0.67123896	0.016220419	1e+10	-0.009514202
4.030026135306578e-09	0.693125	-0.68689424	0.032698076	1e+10	-0.009505478
4.040005107452234e-09	0.6666893	-0.7105693	0.036558762	1e+10	-0.005875256
4.050011468027603e-09	0.63665414	-0.73485625	0.026599588	1e+10	7.2055736e-06
4.060018310080162e-09	0.61578256	-0.75189346	0.0063671763	1e+10	0.005887156
4.070025702540342e-09	0.61170983	-0.75449765	-0.016407276	1e+10	0.0095155435
4.08000554779065e-09	0.624339	-0.73987055	-0.03276265	1e+10	0.009509487
4.090012703557816e-09	0.6480611	-0.7131748	-0.036759235	1e+10	0.0058713933
4.100020015904063e-09	0.67480266	-0.6862113	-0.026943868	1e+10	-1.257636e-05
4.110027543362943e-09	0.696141	-0.67090017	-0.0066847624	1e+10	-0.0058918446
4.1200075877558515e-09	0.7036074	-0.6722991	0.016180292	1e+10	-0.009512037
4.130014838295272e-09	0.692224	-0.6879558	0.03265838	1e+10	-0.00950768
4.140021575725469e-09	0.66578764	-0.711637	0.036562864	1e+10	-0.0058668796
4.150000322219922e-09	0.6358105	-0.73579425	0.026690492	1e+10	2.0245675e-07
4.1600070884362015e-09	0.61477995	-0.75282246	0.006523047	1e+10	0.0058814553
4.170014514090169e-09	0.6104868	-0.755485	-0.016231734	1e+10	0.009513379
4.180022005376741e-09	0.6229711	-0.7409164	-0.032639336	1e+10	0.009506283
4.190001669013421e-09	0.64649177	-0.7144314	-0.036659934	1e+10	0.005877004
4.2000088258094445e-09	0.6731519	-0.6876103	-0.026926236	1e+10	-5.5454193e-06
4.210016281532194e-09	0.6945001	-0.67240167	-0.006754532	1e+10	-0.005886126
4.2200239204422e-09	0.70206964	-0.67384106	0.0161064	1e+10	-0.009515199
4.2300036973189554e-09	0.6908679	-0.68935734	0.032492954	1e+10	-0.009509847
4.240010299076675e-09	0.6646444	-0.71280926	0.036375277	1e+10	-0.005872616
4.250016719591465e-09	0.6348227	-0.7367605	0.026450671	1e+10	1.0505227e-05
4.260023553420786e-09	0.6140541	-0.75353676	0.0062746904	1e+10	0.0058898185
4.270003403810398e-09	0.6099847	-0.7560123	-0.016403506	1e+10	0.009511226
4.280010725464743e-09	0.6225999	-0.74130845	-0.03280604	1e+10	0.00950848
4.290018050424115e-09	0.6462647	-0.71459955	-0.036813263	1e+10	0.0058686733
4.300025128811976e-09	0.67296255	-0.68767494	-0.027032077	1e+10	-1.5788892e-05
4.310005199278889e-09	0.69429976	-0.67247045	-0.00689024	1e+10	-0.005880495
4.32001282389437e-09	0.7019744	-0.6738895	0.015987838	1e+10	-0.009513052
4.3300201999196886e-09	0.6908572	-0.6894133	0.032420076	1e+10	-0.009506635
4.340026778385913e-09	0.66475916	-0.7127604	0.036264177	1e+10	-0.0058642323
4.350005502574383e-09	0.6351782	-0.73648417	0.026338354	1e+10	3.4573693e-06
4.360012382955626e-09	0.61456776	-0.75310826	0.006146894	1e+10	0.0058841454
4.370019710040817e-09	0.61067957	-0.75542855	-0.016616251	1e+10	0.009514385
4.380027249676338e-09	0.62350523	-0.74053574	-0.0330195	1e+10	0.009505261
4.390006792243751e-09	0.6472496	-0.7137432	-0.036990985	1e+10	0.0058743996
4.400013972483045e-09	0.6740158	-0.6867162	-0.027158221	1e+10	-8.779169e-06
4.410021669374578e-09	0.69541484	-0.67146766	-0.006878496	1e+10	-0.005888862
4.4200016139641295e-09	0.70303345	-0.6729436	0.016018381	1e+10	-0.0095108785
4.430008852876394e-09	0.6918528	-0.6885414	0.032531317	1e+10	-0.009508844
4.440015425671876e-09	0.66561735	-0.71196765	0.036422364	1e+10	-0.0058700084
4.4500218806929184e-09	0.6357915	-0.7358016	0.026438985	1e+10	1.374804e-05
4.460001111531164e-09	0.6151576	-0.75239307	0.0062286863	1e+10	0.0058784178
4.470008420441692e-09	0.6113061	-0.7547417	-0.01661317	1e+10	0.009512199
4.4800159854696324e-09	0.6242598	-0.73988223	-0.033080902	1e+10	0.009507457
4.490023307270877e-09	0.64820284	-0.71302474	-0.03707531	1e+10	0.0058659986
4.500002951387117e-09	0.6749516	-0.6860521	-0.027241154	1e+10	-1.8544112e-06
4.510010453329401e-09	0.696339	-0.67074144	-0.006911765	1e+10	-0.0058831647
4.5200179600164426e-09	0.70388734	-0.6722009	0.016125144	1e+10	-0.009514046
4.5300253328936325e-09	0.69252014	-0.6878681	0.032693896	1e+10	-0.009505634
4.54000439708325e-09	0.6661413	-0.71134114	0.03659919	1e+10	-0.0058756173
4.550010754936868e-09	0.6361263	-0.73528355	0.026597228	1e+10	6.7575256e-06
4.560017453510987e-09	0.615383	-0.7519989	0.0062606498	1e+10	0.005886721
4.570024929703787e-09	0.6116382	-0.7544028	-0.016647171	1e+10	0.0095153935
4.580004806641562e-09	0.6246929	-0.73964614	-0.033124994	1e+10	0.009509631
4.59001212802967e-09	0.6487463	-0.71279156	-0.037181374	1e+10	0.0058716857
4.6000193924103815e-09	0.67564017	-0.68562925	-0.027335968	1e+10	-1.2184608e-05
4.610026740205188e-09	0.6970343	-0.67015004	-0.006963567	1e+10	-0.0058914367
4.6200068158772346e-09	0.7045381	-0.6714692	0.016083164	1e+10	-0.009511888
4.6300141371013396e-09	0.69313204	-0.687117	0.032734677	1e+10	-0.009507816
4.640020827045702e-09	0.66659665	-0.710754	0.03669045	1e+10	-0.0058672605
4.650027129114122e-09	0.63651437	-0.73482305	0.02667662	1e+10	1.7045717e-05
4.660006165137136e-09	0.6157984	-0.7516124	0.006372452	1e+10	0.005880986
4.670013816696654e-09	0.6120342	-0.75413686	-0.016579235	1e+10	0.009513244
4.680021216007784e-09	0.6251441	-0.7393898	-0.033152573	1e+10	0.009506437
4.690001096492422e-09	0.64916945	-0.7125733	-0.037244674	1e+10	0.005877295
4.700008275166417e-09	0.6761067	-0.6852821	-0.02743826	1e+10	-5.1994402e-06
4.710015827161141e-09	0.697539	-0.6696287	-0.0070582326	1e+10	-0.005885895
4.720023362363716e-09	0.70506537	-0.67086333	0.016094465	1e+10	-0.009515091
4.7300030786161315e-09	0.6936778	-0.6864913	0.032754563	1e+10	-0.009509968
4.740009743717842e-09	0.6671214	-0.7102316	0.036783975	1e+10	-0.0058728983
4.7500161036245356e-09	0.6369591	-0.73445296	0.026835285	1e+10	1.0118204e-05
4.760022773093673e-09	0.61606	-0.75143015	0.00650148	1e+10	0.0058894227
4.770002670580168e-09	0.6121464	-0.75407094	-0.016396854	1e+10	0.009511083
4.7800100810388394e-09	0.6250933	-0.7394472	-0.033017002	1e+10	0.009508606
4.790017437029557e-09	0.6490948	-0.7126347	-0.037161592	1e+10	0.0058689853
4.80002458325211e-09	0.67599297	-0.68539	-0.027378652	1e+10	-1.5446107e-05
4.810004512626535e-09	0.6973566	-0.669783	-0.007084459	1e+10	-0.0058801463
4.8200121087763954e-09	0.7049099	-0.670992	0.01605828	1e+10	-0.009512913
4.830019579888261e-09	0.6935035	-0.6866722	0.032773674	1e+10	-0.009506756
4.840026163122996e-09	0.66693324	-0.7104534	0.03681696	1e+10	-0.0058645452
4.850004849228704e-09	0.6368059	-0.73466825	0.0269403	1e+10	3.0468602e-06
4.860011611492934e-09	0.61577547	-0.7517314	0.0066533713	1e+10	0.0058837533
4.870019212750847e-09	0.611697	-0.7544581	-0.016292106	1e+10	0.009514289
4.880026663589618e-09	0.62451744	-0.73990405	-0.032906577	1e+10	0.009505374
4.890006253911575e-09	0.64835036	-0.71325874	-0.03706859	1e+10	0.005874673
4.900013584960105e-09	0.67519987	-0.6860821	-0.027351394	1e+10	-8.535681e-06
4.910021003656135e-09	0.6966152	-0.67047584	-0.007057588	1e+10	-0.005888524
4.920001005627545e-09	0.70418376	-0.6716825	0.015978439	1e+10	-0.00951076
4.930008336509619e-09	0.6928763	-0.687301	0.032680754	1e+10	-0.009508945
4.940015005733088e-09	0.6664177	-0.7110016	0.036738053	1e+10	-0.005870222
4.950021282386655e-09	0.63630366	-0.7352078	0.02685273	1e+10	1.3372114e-05