# t (s)	mx ()	my ()	mz ()	J-freq (Hz)
1e-09	-0.047412492	0.76448596	-0.13240932	1e+09
1.01001178612803e-09	-0.10745827	0.7536949	-0.11367774	1e+09
1.020009598540477e-09	-0.13465911	0.71492916	-0.09835	1e+09
1.0300014326649112e-09	-0.1697808	0.6187253	-0.08311948	1e+09
1.0400115000844432e-09	-0.20603232	0.41736406	-0.11271198	1e+09
1.0500097509027557e-09	-0.17038532	0.16663466	-0.20022115	1e+09
1.0600113723348044e-09	-0.018300265	0.07685732	-0.26594394	1e+09
1.0700080304009336e-09	0.1724425	0.16067302	-0.22998959	1e+09
1.0800114366704205e-09	0.23129101	0.16799127	0.026848646	1e+09
1.09001091138953e-09	-0.004704492	0.13829316	0.24535578	1e+09
1.1000099134761306e-09	-0.19598906	0.035719585	0.052947477	1e+09
1.1100010962529782e-09	-0.06582291	0.027424093	-0.08988196	1e+09
1.1200042553220054e-09	0.10127579	-0.060746875	-0.10809492	1e+09
1.1300074121011706e-09	0.02382954	-0.0066032535	0.16314894	1e+09
1.1400042398511599e-09	-0.18253562	-0.12010069	-0.095910884	1e+09
1.1500097666525873e-09	0.17866361	-0.13086216	-0.028417926	1e+09
1.1600143287370078e-09	-0.1622501	-0.16788304	0.12034498	1e+09
1.1700148313866558e-09	0.038820554	-0.2307433	-0.13085522	1e+09
1.180008318309954e-09	0.0011931688	-0.2594034	0.1194183	1e+09
1.190004285552405e-09	-0.11040853	-0.30484474	-0.078715675	1e+09
1.2000128360580982e-09	0.11857396	-0.32345682	0.025482532	1e+09
1.2100052024676042e-09	-0.13642702	-0.36563268	0.024445567	1e+09
1.2200116456881793e-09	0.11663918	-0.40576747	-0.07875164	1e+09
1.2300047484659503e-09	-0.06559085	-0.46661887	0.091720976	1e+09
1.2400113662492875e-09	0.013641341	-0.46976924	-0.069064505	1e+09
1.2500068794788463e-09	0.08952856	-0.52150655	0.06389986	1e+09
1.2600106838358323e-09	-0.13928719	-0.55194944	-0.026528742	1e+09
1.270006382494845e-09	0.19718127	-0.5795573	0.013543812	1e+09
1.2800008235186045e-09	-0.24616483	-0.6070905	0.0499943	1e+09
1.2900129322961403e-09	0.20923504	-0.63893974	-0.11514112	1e+09
1.3000105157024598e-09	-0.17484233	-0.6646294	0.16630661	1e+09
1.3100054647267577e-09	0.043294527	-0.68547404	-0.1538072	1e+09
1.3200009127723052e-09	0.0009937098	-0.70320106	0.12917459	1e+09
1.330000165956867e-09	-0.110456206	-0.7063112	-0.11639263	1e+09
1.3400142850882376e-09	0.17723477	-0.7277845	0.03007586	1e+09
1.3500063655985533e-09	-0.18214111	-0.743247	0.11899285	1e+09
1.3600039884854003e-09	0.020436248	-0.7710468	-0.23161682	1e+09
1.37000976881491e-09	0.21351361	-0.79422843	0.18941833	1e+09
1.3800130010728677e-09	-0.34139532	-0.7919968	0.032947637	1e+09
1.3900129255582277e-09	0.12716891	-0.81973433	-0.27103478	1e+09
1.4000007445399373e-09	0.258151	-0.8318741	0.23589861	1e+09
1.410008974661024e-09	-0.38322008	-0.8262546	0.10464477	1e+09
1.4200127352745986e-09	-0.067699395	-0.86802167	-0.28922352	1e+09
1.430004647181736e-09	0.36679637	-0.8345775	-0.011896518	1e+09
1.4400117240140462e-09	0.031005103	-0.8965473	0.23912387	1e+09
1.4500138269973753e-09	-0.29957846	-0.8596937	0.074650235	1e+09
1.4600155362031193e-09	-0.22313473	-0.8794966	-0.11280984	1e+09
1.4700140771037162e-09	0.026624128	-0.8933214	-0.1587055	1e+09
1.480000844184985e-09	0.19582465	-0.86088645	-0.101712525	1e+09
1.4900049104631202e-09	0.24736053	-0.8405795	-0.04554557	1e+09
1.500013101230568e-09	0.2632673	-0.8282807	-0.03092485	1e+09
1.5100059067302039e-09	0.29254913	-0.8162434	-0.063690595	1e+09
1.5200066869756427e-09	0.34867275	-0.77548915	-0.14240052	1e+09
1.5300144539892125e-09	0.42584336	-0.65116525	-0.28136578	1e+09
1.540010906615394e-09	0.44226435	-0.39401472	-0.48541594	1e+09
1.5500039483553317e-09	0.17957608	-0.09801351	-0.67521685	1e+09
1.5600035446349097e-09	-0.34572223	-0.14564314	-0.60062134	1e+09
1.5700054587476646e-09	-0.6208334	-0.3857766	-0.10828187	1e+09
1.5800058146265783e-09	-0.44364786	-0.20700166	0.5115849	1e+09
1.5900000849289975e-09	0.32770643	-0.106273286	0.583557	1e+09
1.6000121479431964e-09	0.6549611	-0.25420272	-0.20974033	1e+09
1.6100101718067356e-09	-0.11980473	-0.027860347	-0.7166703	1e+09
1.6200136408066533e-09	-0.7002223	-0.19437112	0.18604687	1e+09
1.630007621090566e-09	0.30460158	-0.013462738	0.6825236	1e+09
1.64000123380509e-09	0.55196506	-0.03901496	-0.5071397	1e+09
1.6500138192118758e-09	-0.66517407	-0.06539252	-0.26391155	1e+09
1.6600075605768282e-09	0.13370614	0.08855645	0.71839434	1e+09
1.6700084896119137e-09	0.48888153	0.085633345	-0.570832	1e+09
1.680011219190487e-09	-0.7032591	0.07256121	0.1193758	1e+09
1.6900111852880241e-09	0.6131608	0.13143319	0.2960201	1e+09
1.7000111284265692e-09	-0.34341943	0.20403975	-0.5418904	1e+09
1.7100044256856133e-09	0.041963056	0.28136832	0.5815079	1e+09
1.720015472714347e-09	0.20206784	0.31003138	-0.47899875	1e+09
1.7300059731826286e-09	-0.32370818	0.34768334	0.27960843	1e+09
1.7400144272280038e-09	0.31492543	0.37155005	-0.09582757	1e+09
1.7500052470240494e-09	-0.26346782	0.38801977	0.009936875	1e+09
1.760011737724483e-09	0.22804795	0.43154418	0.01903193	1e+09
1.7700019462798517e-09	-0.24965881	0.43739447	-0.13262726	1e+09
1.7800074790444634e-09	0.14741233	0.48754054	0.20476489	1e+09
1.7900052714490105e-09	-0.08524109	0.5202088	-0.22418886	1e+09
1.8000141559254659e-09	-0.019227222	0.55319244	0.18109642	1e+09
1.8100136860330216e-09	0.0259833	0.5840131	-0.11627507	1e+09
1.8200144147070148e-09	-0.050045785	0.6062917	0.06647769	1e+09
1.8300094885033777e-09	0.015309364	0.63397026	-0.038661387	1e+09
1.8400014494617495e-09	-0.0010738693	0.6457647	0.025375852	1e+09
1.8500088082614225e-09	-0.035575874	0.66190076	-0.037119888	1e+09
1.8600115081100796e-09	-0.012734532	0.6648197	0.09604301	1e+09
1.8700083901724393e-09	0.10831949	0.71613276	-0.10660312	1e+09
1.880001765246261e-09	-0.18455048	0.73739314	0.017687412	1e+09
1.8900033096864286e-09	0.13019635	0.729496	0.12302875	1e+09
1.900008171385578e-09	0.074968174	0.77087784	-0.1621858	1e+09
1.910013023632486e-09	-0.2475203	0.79470307	0.0017327167	1e+09
1.9200146084125415e-09	0.060421076	0.7662283	0.17259106	1e+09
1.9300129638578798e-09	0.21787885	0.8263743	-0.055212114	1e+09
1.9400152684165707e-09	-0.076559335	0.8106324	-0.14790359	1e+09
1.9500127787843083e-09	-0.22866775	0.8455255	0.013106038	1e+09
1.960015486555045e-09	-0.040219955	0.82524353	0.12053851	1e+09
1.9700059020893088e-09	0.14527644	0.8006584	0.077694945	1e+09
1.980006817048256e-09	0.16462585	0.86648834	0.015228238	1e+09
1.990015596601013e-09	0.12277202	0.88428307	0.0010242291	1e+09
2.0000056363843576e-09	0.08423928	0.84249043	0.0091298185	1e+09
2.0100123062670397e-09	0.08403627	0.7930236	0.027852224	1e+09
2.020006689189042e-09	0.111504644	0.75411963	0.053717412	1e+09
2.03000228594344e-09	0.13602453	0.7021238	0.10009807	1e+09
2.0400144727852757e-09	0.13183685	0.59535426	0.17165214	1e+09
2.05001494616546e-09	0.033462666	0.41622698	0.22604223	1e+09
2.0600076943792175e-09	-0.18065475	0.25096762	0.16495141	1e+09
2.070004009062044e-09	-0.284822	0.1591434	-0.06451427	1e+09
2.080008089041645e-09	-0.09329625	0.0626994	-0.2436705	1e+09
2.0900088901780433e-09	0.18043251	-0.0021385911	-0.13293107	1e+09
2.100013621623515e-09	0.10067975	-0.039309185	0.22079319	1e+09
2.1100153655793722e-09	-0.25880328	-0.05867848	0.05912967	1e+09
2.120000732782433e-09	0.057011362	-0.150491	-0.14638855	1e+09
2.1300085393919315e-09	0.02429804	-0.15188077	0.15238416	1e+09
2.140002391013942e-09	-0.15637586	-0.19722249	0.044381388	1e+09
2.150001180785841e-09	-0.041306324	-0.23667607	-0.24935487	1e+09
2.1600088035778476e-09	0.2620083	-0.27876997	0.1589016	1e+09
2.1700001958794984e-09	-0.3656407	-0.29588383	0.052131582	1e+09
2.180013826355827e-09	0.27471727	-0.36143553	-0.24888006	1e+09
2.190006058503304e-09	-0.11336757	-0.40184653	0.36593372	1e+09
2.2000152753059e-09	-0.019104524	-0.44751996	-0.42335656	1e+09
2.2100067945470456e-09	0.15539569	-0.47882697	0.4137897	1e+09
2.2200030131814253e-09	-0.27922904	-0.523453	-0.34220567	1e+09
2.2300056172584924e-09	0.33274215	-0.54684424	0.26224563	1e+09
2.240008964458312e-09	-0.3611333	-0.5808828	-0.15695286	1e+09
2.2500150887294525e-09	0.36530644	-0.607773	0.06488336	1e+09
2.2600141773675882e-09	-0.34543127	-0.6447533	0.022079129	1e+09
2.2700015122415798e-09	0.32379198	-0.6846703	-0.10059528	1e+09
2.2800120677760304e-09	-0.28704238	-0.7187536	0.15830839	1e+09
2.290000570302559e-09	0.23255129	-0.75668937	-0.21367905	1e+09
2.3000055704164057e-09	-0.15570936	-0.7861239	0.25897387	1e+09
2.3100046622843595e-09	0.058809265	-0.81456465	-0.28658104	1e+09
2.3200097232558227e-09	0.059162688	-0.83232725	0.28208455	1e+09
2.330013018467015e-09	-0.1727264	-0.8422312	-0.23995796	1e+09
2.3400115769802197e-09	0.27911323	-0.845354	0.14710386	1e+09
2.3500025713056992e-09	-0.31753805	-0.8505435	-0.0022164544	1e+09
2.360011813578389e-09	0.2541896	-0.8705133	-0.15339744	1e+09
2.370008725074457e-09	-0.05460661	-0.8987561	0.24796233	1e+09
2.3800041995011825e-09	-0.18636332	-0.90063006	-0.18670024	1e+09
2.3900002262903367e-09	0.29179376	-0.89859605	-0.021517325	1e+09
2.4000136577007295e-09	-0.101568274	-0.92099726	0.1958471	1e+09
2.4100032975603635e-09	-0.19233027	-0.91476786	-0.11836679	1e+09
2.420007912047033e-09	0.17474517	-0.9297475	-0.11819874	1e+09
2.4300060105234306e-09	0.14961018	-0.9282926	0.11344278	1e+09
2.4400053844063475e-09	-0.11690361	-0.9351855	0.11527088	1e+09
2.4500061475612374e-09	-0.18536231	-0.92802334	-0.03058574	1e+09
2.460011043954517e-09	-0.059250705	-0.95056105	-0.105870396	1e+09
2.4700054431393868e-09	0.08696552	-0.9465772	-0.089541495	1e+09
2.4800000146833374e-09	0.17936625	-0.9321737	-0.048788927	1e+09
2.490004755040338e-09	0.22332007	-0.91982555	-0.012468996	1e+09
2.500011451342594e-09	0.24113587	-0.91399395	-0.00012938597	1e+09
2.5100016359868084e-09	0.2696206	-0.89827275	-0.02931966	1e+09
2.520008444221594e-09	0.33255687	-0.8445847	-0.10849436	1e+09
2.5300085146961837e-09	0.42032874	-0.6973178	-0.25674188	1e+09
2.540011233552974e-09	0.4218144	-0.39016342	-0.48141763	1e+09
2.550011028907477e-09	0.07767602	-0.08436343	-0.6644208	1e+09
2.5600143398729455e-09	-0.4163999	-0.16283387	-0.46874383	1e+09
2.5700097182902875e-09	-0.45917496	-0.20450334	0.06790886	1e+09
2.5800025329330494e-09	-0.020419747	-0.062753305	0.36223748	1e+09
2.5900026230248904e-09	0.32523903	-0.04381177	0.047733516	1e+09
2.6000042363212317e-09	0.06315383	-0.0033439542	-0.3181256	1e+09
2.610005491672175e-09	-0.3274573	-0.010262046	-0.05375058	1e+09
2.6200018586847126e-09	0.008309478	0.093712345	0.3760639	1e+09
2.6300110357313156e-09	0.36570752	0.05624993	-0.15296279	1e+09
2.64000621184499e-09	-0.30288672	0.12628236	-0.25313485	1e+09
2.6500055107255798e-09	-0.06912329	0.18461077	0.39346024	1e+09
2.6600027358671084e-09	0.36584693	0.16376881	-0.16759726	1e+09
2.6700077962114442e-09	-0.340009	0.19629718	-0.15273029	1e+09
2.6800092390427883e-09	0.14161396	0.27206334	0.2976296	1e+09
2.690003307841599e-09	0.053228933	0.32324687	-0.31025082	1e+09
2.700015112929253e-09	-0.223759	0.33001193	0.21575098	1e+09
2.7100123488070597e-09	0.25782114	0.35524935	-0.08084436	1e+09
2.7200068260163802e-09	-0.24677745	0.38678923	-0.020094415	1e+09
2.7300036259461443e-09	0.17915282	0.43212682	0.09648107	1e+09
2.7400064398443132e-09	-0.10406605	0.46871686	-0.10782291	1e+09
2.750011347328553e-09	0.037138388	0.5092875	0.09779765	1e+09
2.7600075632227525e-09	0.00920277	0.532736	-0.09673476	1e+09
2.770001505944628e-09	-0.06027666	0.5589567	0.086945936	1e+09
2.7800079015808285e-09	0.06805268	0.57713205	-0.0651042	1e+09
2.790011012900205e-09	-0.07677047	0.61366314	0.04446913	1e+09
2.800012282414946e-09	0.07581051	0.6276546	-0.019119428	1e+09
2.8100143695494878e-09	-0.06409779	0.65733665	0.009503063	1e+09
2.8200103615949234e-09	0.055669058	0.6874851	0.003533158	1e+09
2.8300034930066667e-09	-0.057439134	0.7041187	-0.030089783	1e+09
2.840006553681612e-09	0.030701155	0.7227447	0.06319473	1e+09
2.8500022484705953e-09	0.039688088	0.72288215	-0.059196346	1e+09
2.8600039262797175e-09	-0.07541258	0.7504084	0.01063385	1e+09
2.8700015586453533e-09	0.06276207	0.7806493	0.048875213	1e+09
2.8800138445974016e-09	0.023252184	0.79955065	-0.061820325	1e+09
2.890003872582285e-09	-0.06798767	0.79172343	-0.0025665285	1e+09
2.9000075142645942e-09	-0.0052279327	0.8203863	0.053214215	1e+09
2.91000241413222e-09	0.068929754	0.8307461	0.009984255	1e+09
2.920012765686944e-09	0.035211727	0.84256566	-0.06741997	1e+09
2.930000575452373e-09	-0.08612734	0.8540456	-0.033625133	1e+09
2.9400154590377945e-09	-0.08234523	0.8512774	0.06946798	1e+09
2.9500004142444696e-09	0.06948531	0.86970705	0.07835685	1e+09
2.9600054622894714e-09	0.14404774	0.86687636	-0.0044258866	1e+09
2.970010070371805e-09	0.09878375	0.8778362	-0.06414344	1e+09
2.9800096066323724e-09	0.009432687	0.88629925	-0.07347909	1e+09
2.9900062433919785e-09	-0.065915264	0.8525964	-0.062168226	1e+09
3.0000149132106126e-09	-0.10588528	0.79419994	-0.051763423	1e+09
3.0100102060602193e-09	-0.13367663	0.74419236	-0.045955203	1e+09
3.0200038399237994e-09	-0.15085343	0.6870167	-0.055685762	1e+09
3.03001159127565e-09	-0.14655155	0.5813017	-0.08582791	1e+09
3.0400081728026087e-09	-0.08990227	0.40138942	-0.113860466	1e+09
3.050013917124337e-09	0.014511507	0.21308202	-0.088369004	1e+09
3.0600068611457814e-09	0.06432127	0.14095819	0.006434726	1e+09
3.070004681670289e-09	0.011509892	0.13051228	0.0812227	1e+09
3.0800077135593875e-09	-0.04850717	0.0710623	0.047642652	1e+09
3.090012735291777e-09	-0.036379885	-0.004302643	-0.049442038	1e+09
3.100012073321728e-09	0.038487818	-0.009567902	-0.018549882	1e+09
3.110003185823792e-09	-0.047972757	-0.050896775	0.041657902	1e+09
3.120011767772054e-09	-0.07311138	-0.09299305	-0.06828584	1e+09
3.1300022260708073e-09	0.065174975	-0.11134222	-0.08765092	1e+09
3.1400139684729414e-09	0.09889024	-0.17867781	0.07925797	1e+09
3.1500022284632687e-09	-0.119708374	-0.22115052	0.09289991	1e+09
3.1600030043542953e-09	-0.05116969	-0.26319787	-0.1627638	1e+09
3.1700057559696485e-09	0.17539683	-0.30771244	0.055640146	1e+09
3.180002150370449e-09	-0.19886982	-0.34581506	0.11201746	1e+09
3.190007345315411e-09	0.07760603	-0.3842701	-0.22713128	1e+09
3.2000019151908563e-09	0.08309243	-0.42952344	0.22031477	1e+09
3.2100045348755895e-09	-0.17050974	-0.4620792	-0.13776276	1e+09
3.2200078035677694e-09	0.2199372	-0.5049709	0.04010596	1e+09
3.230010180691818e-09	-0.19721119	-0.5262183	0.057041604	1e+09
3.2400054215337555e-09	0.1573121	-0.55725646	-0.096042484	1e+09
3.2500127823728143e-09	-0.11379462	-0.58743864	0.10917679	1e+09
3.2600088919050553e-09	0.07883565	-0.62095326	-0.12515864	1e+09
3.2700024372966867e-09	-0.042098247	-0.66071874	0.11308643	1e+09
3.28000457491761e-09	0.0047084987	-0.69031245	-0.10328146	1e+09
3.290010693627977e-09	0.026771698	-0.7115305	0.090114534	1e+09
3.3000021931768262e-09	-0.023424603	-0.7417823	-0.087922856	1e+09
3.310003568942018e-09	0.06692111	-0.75622106	0.08065973	1e+09
3.3200075605295427e-09	-0.08352667	-0.76965165	-0.043544024	1e+09
3.330006153550304e-09	0.09698812	-0.7875943	-0.015448594	1e+09
3.340012783216325e-09	-0.04831212	-0.80512214	0.05630964	1e+09
3.3500032658605567e-09	-0.0066105677	-0.79988766	-0.037108477	1e+09
3.3600117572185484e-09	0.026341658	-0.82084244	-0.0057899235	1e+09
3.3700061108671296e-09	0.0026628827	-0.8436794	0.016227646	1e+09
3.3800086501923594e-09	-0.018905034	-0.84815	0.003100243	1e+09
3.390010917288236e-09	-0.0013908765	-0.8683898	-0.014586257	1e+09
3.4000092085856114e-09	0.01460618	-0.88331664	0.0055817254	1e+09
3.410007403972317e-09	-0.0035099066	-0.88361007	0.011232802	1e+09
3.420009532047769e-09	-0.026588438	-0.9052719	0.0030460847	1e+09
3.4300009444291617e-09	0.0005848133	-0.91224045	-0.027426044	1e+09
3.4400141100274755e-09	0.043845844	-0.91206664	-0.00075515365	1e+09
3.4500058752495712e-09	0.007137937	-0.91486603	0.031614464	1e+09
3.4600023996194287e-09	-0.045106966	-0.9241282	0.016610982	1e+09
3.470014816683687e-09	-0.03777219	-0.93264985	-0.003159752	1e+09
3.4800133331495568e-09	-0.024689198	-0.9337512	-0.011905519	1e+09
3.4900001649677593e-09	-0.015709061	-0.940486	-0.020375889	1e+09
3.500015521077829e-09	0.00019135838	-0.94645685	-0.02467503	1e+09
3.5100047454104355e-09	0.023398971	-0.944707	-0.02654334	1e+09
3.520002257441082e-09	0.04700949	-0.91782117	-0.035779927	1e+09
3.5300140810495833e-09	0.058415264	-0.8517842	-0.054212786	1e+09
3.540010437893128e-09	0.044254348	-0.7424568	-0.083810575	1e+09
3.5500042057125027e-09	-0.00957418	-0.61003846	-0.0966849	1e+09
3.5600004691573465e-09	-0.071194075	-0.50618434	-0.04893562	1e+09
3.570004604425097e-09	-0.06852524	-0.44864607	0.046871834	1e+09
3.580003229458987e-09	0.022597048	-0.37770653	0.08642334	1e+09
3.5900011622897935e-09	0.07177742	-0.2672941	0.0231315	1e+09
3.6000056760015665e-09	0.042049214	-0.21999091	-0.0867712	1e+09
3.610002028745007e-09	-0.10310208	-0.25241902	-0.06342942	1e+09
3.62000802392364e-09	-0.06184053	-0.18044783	0.17326015	1e+09
3.6300086663355225e-09	0.19481336	-0.16878074	0.030720677	1e+09
3.6400117151736178e-09	-0.027197953	-0.112120755	-0.1862597	1e+09
3.650003444589186e-09	-0.10951054	-0.076899014	0.040233575	1e+09
3.6600010196534342e-09	0.04977824	-0.042271048	0.0051035075	1e+09
3.670008340843583e-09	-0.07281578	0.030214034	-0.008975739	1e+09
3.680007037936436e-09	0.043155707	0.06905405	0.047296718	1e+09
3.690005776660968e-09	0.03619708	0.09774805	-0.04328439	1e+09
3.700006094358481e-09	-0.060301606	0.14738977	-0.036477514	1e+09
3.7100116943766903e-09	0.06459718	0.19293612	0.1277043	1e+09
3.7200089419126377e-09	-0.00069397385	0.21896848	-0.18833348	1e+09
3.730003014871536e-09	-0.0765563	0.2592287	0.19649567	1e+09
3.740009278248805e-09	0.16719238	0.29230636	-0.17541908	1e+09
3.750010928695506e-09	-0.2341744	0.34941727	0.13076742	1e+09
3.760010750126767e-09	0.301466	0.37440684	-0.05591549	1e+09
3.770006839990669e-09	-0.31909987	0.4041533	-0.031362772	1e+09
3.780014226726451e-09	0.28495532	0.437452	0.11904632	1e+09
3.7900011236592365e-09	-0.19661859	0.47544855	-0.15204611	1e+09
3.800015194779348e-09	0.14771816	0.5161802	0.1731376	1e+09
3.810008596358834e-09	-0.06918409	0.54970646	-0.18502514	1e+09
3.820006474599372e-09	0.03990867	0.58231866	0.23180161	1e+09
3.830005139970343e-09	0.09636927	0.6156484	-0.2318223	1e+09
3.840007722597625e-09	-0.191134	0.62173474	0.16932054	1e+09
3.850007010672717e-09	0.26935273	0.6464175	-0.037618726	1e+09
3.860002261484602e-09	-0.17032017	0.6777885	-0.103995904	1e+09
3.870006096836882e-09	0.045812685	0.6784755	0.11678791	1e+09
3.880012694913432e-09	0.047506116	0.7126252	-0.015250455	1e+09
3.8900030396563535e-09	0.03229055	0.7243637	-0.020784872	1e+09
3.900008201739305e-09	-0.012828527	0.7204625	-0.07999362	1e+09
3.91000007189657e-09	-0.120637186	0.73734117	0.052454263	1e+09
3.920011199439705e-09	0.083904184	0.7513167	0.112218134	1e+09
3.930008650988032e-09	0.15819179	0.76375556	-0.06554159	1e+09
3.940011682621009e-09	-0.055259068	0.78748894	-0.11495337	1e+09
3.950011846901415e-09	-0.13272998	0.7766239	0.007655646	1e+09
3.9600042805099225e-09	-0.012764692	0.8044994	0.088827625	1e+09
3.970012241788218e-09	0.10063584	0.8038928	0.071006045	1e+09
3.980007627753315e-09	0.12581295	0.82043904	0.022850806	1e+09
3.9900001107298566e-09	0.09228313	0.8354906	-0.007103586	1e+09
4.000001198358708e-09	0.05921851	0.8238829	-0.0007465207	1e+09
4.0100012637002984e-09	0.050683383	0.7994089	0.020726096	1e+09
4.020011531818204e-09	0.055691972	0.7638732	0.05347662	1e+09
4.030009273510807e-09	0.05371165	0.69934994	0.09033632	1e+09
4.040007815364794e-09	0.0030679884	0.60351104	0.10380712	1e+09
4.050012277600253e-09	-0.10032453	0.46063715	0.050696053	1e+09
4.060015520965325e-09	-0.1597571	0.24863112	-0.077952184	1e+09
4.070011348068143e-09	-0.029204164	0.08616419	-0.18454619	1e+09
4.080000561130011e-09	0.16678333	0.0374453	-0.083446234	1e+09
4.090011918403455e-09	0.11600799	-0.015660092	0.1695352	1e+09
4.100014742326962e-09	-0.1752333	-0.024519736	0.08639019	1e+09
4.1100064211661974e-09	-0.06926717	-0.105627775	-0.21262796	1e+09
4.120000343487396e-09	0.2510196	-0.12430101	-0.038281802	1e+09
4.1300110366000924e-09	-0.0141896475	-0.17786412	0.2771524	1e+09
4.140004622372061e-09	-0.2621397	-0.17904046	-0.11966506	1e+09
4.15000749392054e-09	0.21336076	-0.21447489	-0.14555301	1e+09
4.160007024629294e-09	-0.0460267	-0.29137185	0.24418117	1e+09
4.170002123732467e-09	-0.12502538	-0.32366043	-0.19116488	1e+09
4.180014168949882e-09	0.20387438	-0.34770647	0.08319806	1e+09
4.19000460324773e-09	-0.19390643	-0.38599262	0.0187592	1e+09
4.200013218649132e-09	0.13992238	-0.42811236	-0.08394118	1e+09
4.210003398609276e-09	-0.062013775	-0.47433272	0.11923455	1e+09
4.220001674560893e-09	0.013727622	-0.5270806	-0.112305894	1e+09
4.230006842017031e-09	0.025873773	-0.55920374	0.10244573	1e+09
4.240004646867576e-09	-0.03472965	-0.6061441	-0.069215424	1e+09
4.250005103730799e-09	0.034820832	-0.6389182	0.031619344	1e+09
4.2600068457831775e-09	-0.031055892	-0.6735426	0.008557923	1e+09
4.270006499308795e-09	0.02222653	-0.69850826	-0.043394696	1e+09
4.280012385037106e-09	-0.006448373	-0.7361967	0.077783234	1e+09
4.290002126739548e-09	-0.0031434763	-0.7558031	-0.11136372	1e+09
4.300010636740215e-09	0.027360938	-0.79122305	0.12671214	1e+09
4.310009562922488e-09	-0.0729001	-0.8078548	-0.131146	1e+09
4.320010365742029e-09	0.1223213	-0.8321709	0.1253858	1e+09
4.330007068563517e-09	-0.187056	-0.8457929	-0.090589724	1e+09
4.340006281629837e-09	0.2171404	-0.8608648	0.025060508	1e+09
4.350000282079871e-09	-0.22231734	-0.87302905	0.06367458	1e+09
4.360010720144157e-09	0.1380011	-0.88430375	-0.15420783	1e+09
4.37001505255672e-09	0.009178312	-0.9002175	0.18969984	1e+09
4.3800108332689514e-09	-0.17419499	-0.90315706	-0.1256334	1e+09
4.390008627158612e-09	0.21766183	-0.90924394	-0.027548062	1e+09
4.400009194671787e-09	-0.064165756	-0.9265396	0.14295591	1e+09
4.410006486705159e-09	-0.1408794	-0.9283824	-0.08829042	1e+09
4.420009759725502e-09	0.12630226	-0.9280975	-0.07003641	1e+09
4.430011054343944e-09	0.08589858	-0.94245374	0.0749449	1e+09
4.440007042730453e-09	-0.08133138	-0.94482076	0.05705228	1e+09
4.450010014115626e-09	-0.09218256	-0.9401032	-0.019292263	1e+09
4.460010677680771e-09	-0.01888925	-0.94363505	-0.046783704	1e+09
4.4700130907346496e-09	0.034200765	-0.9494007	-0.037185624	1e+09
4.480003061202802e-09	0.051329847	-0.9471902	-0.024397504	1e+09
4.490009037027675e-09	0.07351236	-0.94979477	-0.026017018	1e+09
4.5000035808576444e-09	0.12086445	-0.9512452	-0.041413166	1e+09
4.510000432246793e-09	0.19710273	-0.9412465	-0.07724378	1e+09
4.5200138546095165e-09	0.30283022	-0.9000858	-0.15560505	1e+09
4.530011537069274e-09	0.4372976	-0.77797294	-0.30952865	1e+09
4.540013067523661e-09	0.51520586	-0.4833205	-0.5691368	1e+09
4.550013529128895e-09	0.20365366	-0.10346966	-0.84093493	1e+09
4.560014371038539e-09	-0.427631	-0.22309613	-0.70278776	1e+09
4.570001609519283e-09	-0.64000964	-0.41629678	-0.07541096	1e+09
4.580009169168274e-09	-0.27646628	-0.17306241	0.5222738	1e+09
4.590003639381358e-09	0.37991703	-0.2506782	0.3611139	1e+09
4.6000066436884865e-09	0.30853394	-0.19426528	-0.28520605	1e+09
4.610006619562178e-09	-0.34144735	-0.17700124	-0.25505584	1e+09
4.6200138765573164e-09	-0.20915957	-0.11100633	0.44963002	1e+09
4.6300054034209866e-09	0.50560105	-0.14764881	0.042344827	1e+09
4.640015523874233e-09	-0.13602023	-0.05815451	-0.5223215	1e+09
4.65001081338828e-09	-0.41120932	-0.055637646	0.34333974	1e+09
4.660011614522249e-09	0.4778216	-0.03071861	0.16268058	1e+09
4.670000583897328e-09	-0.16309318	0.047304735	-0.48250028	1e+09
4.680003000391292e-09	-0.23722036	0.06656612	0.38465223	1e+09
4.690005845137378e-09	0.3568412	0.06705295	-0.13444735	1e+09
4.700005405618143e-09	-0.35583982	0.11406294	-0.06429985	1e+09
4.71000721700508e-09	0.22842495	0.14919454	0.18832073	1e+09
4.720007623747464e-09	-0.12960291	0.19277264	-0.21967125	1e+09
4.730008764264373e-09	0.010379289	0.23721342	0.19655831	1e+09
4.740008607920125e-09	0.046643507	0.26075542	-0.17795843	1e+09
4.750001931770305e-09	-0.13954629	0.29297784	0.14136724	1e+09
4.76000092311195e-09	0.1732368	0.31697258	-0.04346027	1e+09
4.770012124448749e-09	-0.18686447	0.3512045	-0.08529988	1e+09
4.7800097434946755e-09	0.11966559	0.3810683	0.20519334	1e+09
4.79000107334979e-09	-0.016681429	0.43385988	-0.29641384	1e+09
4.800006592709772e-09	-0.13664816	0.4653209	0.30819112	1e+09
4.810015492452405e-09	0.28692725	0.50187963	-0.25011408	1e+09
4.820005700921617e-09	-0.406109	0.52135915	0.10309674	1e+09
4.83001368385808e-09	0.4109007	0.55351144	0.097752415	1e+09
4.8400075860395295e-09	-0.2756253	0.59889853	-0.28525135	1e+09
4.850000455873328e-09	-0.0014383362	0.63859767	0.37359744	1e+09
4.860012401928442e-09	0.27781722	0.6535379	-0.2739838	1e+09
4.870009455075915e-09	-0.4289137	0.65241325	-0.00404096	1e+09
4.880003117106174e-09	0.24336109	0.70465595	0.29386812	1e+09
4.890002330610058e-09	0.18050514	0.71682185	-0.32197335	1e+09
4.900013549066612e-09	-0.4191013	0.7081805	-0.0042495313	1e+09
4.910013379576402e-09	0.10556153	0.7646289	0.30936947	1e+09
4.9200106146025755e-09	0.3547727	0.74067605	-0.11341037	1e+09
4.9300142506971145e-09	-0.133822	0.7978001	-0.26163763	1e+09
4.940006108257557e-09	-0.35056204	0.7609641	0.050324943	1e+09
4.950009423565076e-09	-0.034215182	0.8208617	0.25518253	1e+09
4.960008953340457e-09	0.31248593	0.78406096	0.162073	1e+09
4.9700052046893704e-09	0.37660828	0.7729008	-0.043786533	1e+09
4.9800120017827995e-09	0.23209748	0.8317467	-0.15582508	1e+09
4.99000045428962e-09	0.05723346	0.87705004	-0.1756182	1e+09
5.000009912406257e-09	-0.09261283	0.8615915	-0.17088704	1e+09
5.01000171094112e-09	-0.20341852	0.797102	-0.17396054	1e+09
5.020010499499551e-09	-0.29027942	0.6981474	-0.21208477	1e+09
5.030006316293147e-09	-0.343178	0.53426987	-0.30273065	1e+09
5.040013359718312e-09	-0.26271418	0.2931665	-0.41463867	1e+09
5.050012204338772e-09	0.039167143	0.11380932	-0.43362194	1e+09
5.060014388668359e-09	0.38246846	0.09251848	-0.19994345	1e+09
5.0700117892858915e-09	0.379055	-0.0413096	0.23808189	1e+09
5.080011937758677e-09	-0.09541868	-0.14235985	0.40859222	1e+09
5.090002454383013e-09	-0.4254771	-0.11428611	-0.010543552	1e+09
5.1000056463834476e-09	0.0098304525	-0.21846202	-0.39560926	1e+09
5.1100032235456375e-09	0.38882214	-0.20007989	0.08871016	1e+09
5.120005638999051e-09	-0.19711915	-0.2562024	0.30668643	1e+09
5.130001256924006e-09	-0.19264814	-0.26864588	-0.29872212	1e+09
5.140002986218546e-09	0.38452065	-0.2982418	-0.0056836894	1e+09
5.150002081772837e-09	-0.24524948	-0.3486369	0.25840557	1e+09
5.160010629091702e-09	-0.0117319	-0.40635407	-0.34361094	1e+09
5.1700118711765415e-09	0.2428309	-0.41448852	0.2999503	1e+09
5.180004674498125e-09	-0.39281446	-0.44135636	-0.14900926	1e+09
5.1900045301412185e-09	0.40942892	-0.47774968	-0.011528117	1e+09
5.200007473377761e-09	-0.37205648	-0.51771915	0.14189537	1e+09
5.21000878783177e-09	0.30720326	-0.5649526	-0.23401985	1e+09
5.220000120346253e-09	-0.22612092	-0.61077625	0.30508405	1e+09
5.230010077839735e-09	0.12650846	-0.6505388	-0.3267937	1e+09
5.2400096519619275e-09	-0.030786062	-0.69187456	0.3072133	1e+09
5.250014543080999e-09	-0.021567326	-0.7179513	-0.26939464	1e+09
5.26000947227126e-09	0.052945882	-0.7504119	0.22750211	1e+09
5.270006364937733e-09	-0.038230114	-0.76453257	-0.18363103	1e+09
5.280005909819974e-09	0.047531586	-0.7901356	0.13363422	1e+09
5.290003481503603e-09	-0.04514067	-0.80819035	-0.08827634	1e+09
5.300007943628006e-09	0.060729016	-0.83198524	0.047115974	1e+09
5.3100068679479744e-09	-0.045772605	-0.847795	-0.0050029526	1e+09
5.320006718794976e-09	0.034742497	-0.8680206	-0.024430174	1e+09
5.330014097321336e-09	-0.0017378532	-0.88185036	0.049947582	1e+09
5.340002634809737e-09	-0.037895437	-0.89582884	-0.056976292	1e+09
5.350002558888594e-09	0.08095896	-0.90602076	0.03635856	1e+09
5.360009843822857e-09	-0.10491155	-0.91692024	0.006806709	1e+09
5.370009541635142e-09	0.07182185	-0.928084	-0.06334413	1e+09
5.380011982049467e-09	0.0010998065	-0.933961	0.091736205	1e+09
5.390000489304417e-09	-0.09769469	-0.9370868	-0.049277462	1e+09
5.400000583691032e-09	0.09720533	-0.94275284	-0.042514626	1e+09
5.410004131232525e-09	0.01729004	-0.94959897	0.08617377	1e+09
5.420007663624012e-09	-0.1160559	-0.9525865	-0.011173261	1e+09
5.430014591461489e-09	0.021230226	-0.9567935	-0.07493341	1e+09
5.440012193131007e-09	0.10322626	-0.96046543	0.014275406	1e+09
5.4500120371577055e-09	0.007620178	-0.9567537	0.05548515	1e+09
5.460008024767697e-09	-0.067377724	-0.9665459	0.014464705	1e+09
5.470009995038272e-09	-0.055667583	-0.9632608	-0.012858711	1e+09
5.480000807122206e-09	-0.023301328	-0.9682652	-0.008925113	1e+09
5.49001019764525e-09	-0.0088833645	-0.9671146	-0.0013484685	1e+09
5.500001188970922e-09	-0.008560587	-0.95580107	0.0027421643	1e+09
5.510007929767938e-09	-0.022473259	-0.94068617	0.0082597155	1e+09
5.520002176581316e-09	-0.043099105	-0.9124995	0.017689887	1e+09
5.530000876366147e-09	-0.06660551	-0.8463528	0.03727044	1e+09
5.5400033272852785e-09	-0.084909104	-0.71287584	0.076571435	1e+09
5.5500059403572755e-09	-0.06197219	-0.54069257	0.13018513	1e+09
5.560007424018665e-09	-0.002806442	-0.46475524	0.16104831	1e+09
5.570015475266329e-09	0.019083224	-0.4449965	0.15165812	1e+09
5.580000468968346e-09	0.034288887	-0.31145036	0.12508155	1e+09
5.5900065204313276e-09	0.048959948	-0.28680626	0.042973455	1e+09
5.600012988525803e-09	0.030452074	-0.2889726	-0.030012818	1e+09
5.610006927189657e-09	-0.005610442	-0.2344228	-0.009164805	1e+09
5.620011497188148e-09	0.0123325195	-0.2358485	-0.007521655	1e+09
5.6300036168775295e-09	-0.019680675	-0.1626648	-0.04437659	1e+09
5.640001183708488e-09	-0.088022046	-0.14647792	0.01413618	1e+09
5.650001223272943e-09	0.017684177	-0.09399737	0.13646433	1e+09
5.6600066352273065e-09	0.10653285	-0.031356443	-0.068412095	1e+09
5.670013203333637e-09	-0.156056	-0.03386099	-0.06737257	1e+09
5.680007445715058e-09	0.068703465	0.038005754	0.14431305	1e+09
5.6900000508004925e-09	0.00651286	0.09256035	-0.1382655	1e+09
5.700009685337392e-09	-0.07731225	0.10042359	0.071568474	1e+09
5.7100057401733744e-09	0.046230145	0.13658321	-0.036922	1e+09
5.720005236079046e-09	-0.086057894	0.16653368	0.05541237	1e+09
5.730008285645047e-09	0.1186658	0.21320203	-0.01183366	1e+09