# t (s)	mx ()	my ()	mz ()	J-freq (Hz)	B_ext (T)
1e-09	-0.34441495	0.7576424	-0.07974216	1e+09	-9.648735e-16
1.010021574880219e-09	-0.43024182	0.70968735	-0.11521756	1e+09	-0.094388716
1.0200204525943909e-09	-0.54709405	0.6060144	-0.25142238	1e+09	-0.18819109
1.0300228388218123e-09	-0.5981234	0.32286867	-0.4984357	1e+09	-0.2812834
1.0400190475018008e-09	-0.28933248	-0.046591792	-0.72330725	1e+09	-0.3732087
1.0500211991701807e-09	0.26184165	-0.07241509	-0.62771773	1e+09	-0.4637155
1.0600215947608883e-09	0.5029822	0.071576335	-0.20397088	1e+09	-0.55237603
1.0700271337080614e-09	0.33488908	-0.0037839988	0.24334052	1e+09	-0.63890034
1.0800002617313861e-09	-0.16941428	-0.10145898	0.29371586	1e+09	-0.72263265
1.0900217695096632e-09	-0.3203509	-0.110881194	-0.19336337	1e+09	-0.8039134
1.1000270010917037e-09	0.26022446	-0.091667846	-0.23102632	1e+09	-0.88188374
1.1100240331869057e-09	0.13246271	-0.20950714	0.2794156	1e+09	-0.9563105
1.1200124885658713e-09	-0.24818698	-0.18629599	0.0625186	1e+09	-1.0269065
1.130020141530299e-09	-0.020046735	-0.23524338	-0.17624158	1e+09	-1.0935829
1.1400173729698981e-09	0.1343841	-0.22879195	-0.037835456	1e+09	-1.1558743
1.15000351528108e-09	0.029411385	-0.29551315	0.20202252	1e+09	-1.213545
1.1600128445577623e-09	-0.24417546	-0.31285843	-0.1345294	1e+09	-1.2665567
1.1700262814082182e-09	0.35189623	-0.33185646	-0.05544686	1e+09	-1.3145794
1.1800238810543415e-09	-0.27399814	-0.3838336	0.2159753	1e+09	-1.3573364
1.1900257587886759e-09	0.14272706	-0.4277243	-0.3160714	1e+09	-1.394754
1.200016229938288e-09	0.00803697	-0.47336984	0.34435868	1e+09	-1.426632
1.2100182713048806e-09	-0.1160596	-0.51280713	-0.2856911	1e+09	-1.4529176
1.2200090549826985e-09	0.18892467	-0.5338582	0.1867127	1e+09	-1.4734468
1.230001013853871e-09	-0.21423922	-0.5637736	-0.09179117	1e+09	-1.4881732
1.240002189188855e-09	0.21359931	-0.5995609	0.002334809	1e+09	-1.4970413
1.2500118501387822e-09	-0.20702608	-0.63055885	0.06435054	1e+09	-1.5
1.2600010458241506e-09	0.19350773	-0.663137	-0.123992644	1e+09	-1.4970394
1.270027006151198e-09	-0.1620312	-0.6946905	0.15563309	1e+09	-1.4881401
1.2800124477399192e-09	0.118260175	-0.7289535	-0.18653373	1e+09	-1.4734089
1.2900046402530413e-09	-0.051432744	-0.75622505	0.2085905	1e+09	-1.4528638
1.3000124843176378e-09	-0.017687226	-0.782974	-0.22187176	1e+09	-1.4265484
1.3100142592690452e-09	0.11060257	-0.80108917	0.20765333	1e+09	-1.3946153
1.3200247680032351e-09	-0.20245358	-0.817471	-0.1675278	1e+09	-1.3571411
1.3300004790187165e-09	0.29175386	-0.82134485	0.080159396	1e+09	-1.3144579
1.3400009144022315e-09	-0.328561	-0.8287641	0.04120514	1e+09	-1.2664872
1.3500144506621483e-09	0.2807004	-0.8458296	-0.18420316	1e+09	-1.2134454
1.3600074027510966e-09	-0.1043941	-0.87690353	0.2880912	1e+09	-1.1557254
1.3700202785593781e-09	-0.14338772	-0.8947547	-0.27464056	1e+09	-1.0933222
1.3800105375984118e-09	0.3492946	-0.8849652	0.10128217	1e+09	-1.0267483
1.3900266566739605e-09	-0.30608818	-0.89000916	0.15203167	1e+09	-0.9559424
1.4000171661664355e-09	-0.014416433	-0.92138016	-0.26053864	1e+09	-0.881547
1.4100115342502277e-09	0.30808434	-0.907251	0.066753425	1e+09	-0.8036484
1.4200237884043667e-09	-0.1455922	-0.9258133	0.18953155	1e+09	-0.72243404
1.4300067409509116e-09	-0.21488163	-0.9176104	-0.0956467	1e+09	-0.63861144
1.4400247696754527e-09	0.09681456	-0.9417232	-0.14298952	1e+09	-0.55196977
1.4500246885185467e-09	0.18787862	-0.92568	0.01227496	1e+09	-0.4633042
1.4600245842712735e-09	0.06790986	-0.93240994	0.09410945	1e+09	-0.3728104
1.4700261054512041e-09	-0.041754793	-0.9461724	0.0749629	1e+09	-0.2808303
1.4800007297446508e-09	-0.09368755	-0.9365218	0.040047996	1e+09	-0.18799302
1.490001124927877e-09	-0.13491328	-0.916441	0.030642876	1e+09	-0.0941752
1.5000101426894515e-09	-0.18678984	-0.901931	0.04418835	1e+09	9.559259e-05
1.5100024205660504e-09	-0.26752147	-0.8872583	0.09023317	1e+09	0.094208546
1.520023121133659e-09	-0.3903067	-0.8322902	0.19489054	1e+09	0.18821605
1.530021038158439e-09	-0.53910863	-0.6499981	0.39391232	1e+09	0.28126675
1.5400079103707251e-09	-0.52086353	-0.23777041	0.6998234	1e+09	0.37310705
1.5500007927791048e-09	0.06098709	0.05532929	0.87341803	1e+09	0.4635326
1.5600094633962005e-09	0.62112945	-0.2512533	0.4895515	1e+09	0.55226976
1.5700021060324928e-09	0.58810484	-0.2575361	-0.2000569	1e+09	0.6386869
1.5800038152465816e-09	-0.0038461913	-0.069974795	-0.5050836	1e+09	0.72266203
1.5900223127603176e-09	-0.40579394	-0.15804201	-0.091452	1e+09	0.80391777
1.6000070798650262e-09	-0.08832376	-0.08456446	0.36791524	1e+09	0.88173187
1.6100084867625966e-09	0.40468794	-0.12800741	0.041276183	1e+09	0.9561976
1.6200108441554774e-09	-0.06324727	-0.026799355	-0.38039753	1e+09	1.0268952
1.630014311906877e-09	-0.29974034	-0.00582496	0.22818959	1e+09	1.0935453
1.6400121243805522e-09	0.29916954	-0.02072728	0.21672964	1e+09	1.1558427
1.6500169054062489e-09	0.13460827	0.03426782	-0.3685863	1e+09	1.2136191
1.6600171010171918e-09	-0.38030457	0.051545054	0.07027787	1e+09	1.2665782
1.6700222339811684e-09	0.31332365	0.10743283	0.2811607	1e+09	1.314561
1.6800045103890822e-09	-0.010254825	0.14125794	-0.4285087	1e+09	1.3572587
1.6900023242905045e-09	-0.23755923	0.17064512	0.3737047	1e+09	1.3946728
1.7000042423834035e-09	0.40291187	0.20350909	-0.20406325	1e+09	1.4265971
1.7100015781562495e-09	-0.4398069	0.23226732	-0.018074341	1e+09	1.4528785
1.7200263630789375e-09	0.36046156	0.27082613	0.17189787	1e+09	1.4734774
1.7300258185927659e-09	-0.23569143	0.31148013	-0.25719982	1e+09	1.4882026
1.7400145821298079e-09	0.083295055	0.3481863	0.34394756	1e+09	1.4970487
1.7500052799210226e-09	0.12711218	0.37987387	-0.36884737	1e+09	1.5
1.760007140868147e-09	-0.33392894	0.41530707	0.31889457	1e+09	1.4970359
1.770004311225828e-09	0.48406374	0.4312063	-0.21492243	1e+09	1.4881669
1.780018965126278e-09	-0.56745654	0.4649772	0.07305157	1e+09	1.4733974
1.7900196287367244e-09	0.5805749	0.49992537	0.08651555	1e+09	1.4528288
1.800010958153346e-09	-0.53771675	0.54986686	-0.24517268	1e+09	1.4265529
1.8100264056467514e-09	0.41225314	0.60905325	0.37668967	1e+09	1.3945731
1.8200151058968386e-09	-0.22926691	0.6491347	-0.45668557	1e+09	1.35718
1.8300194542136792e-09	0.00710027	0.68384385	0.44846526	1e+09	1.3143717
1.840008812154004e-09	0.21506406	0.6890014	-0.36559364	1e+09	1.2664474
1.8500052530739173e-09	-0.3748511	0.7007257	0.17851539	1e+09	1.2134964
1.8600008121461202e-09	0.37923378	0.72870964	0.063775435	1e+09	1.1557649
1.8700130962681457e-09	-0.19876324	0.77424514	-0.25570855	1e+09	1.0933684
1.8800163724985045e-09	-0.13176173	0.78358394	0.25744116	1e+09	1.0267081
1.8900037809430047e-09	0.31676683	0.7573042	-0.02400772	1e+09	0.9561085
1.9000197494923453e-09	-0.1459513	0.82516295	-0.23064229	1e+09	0.8815273
1.9100159058608992e-09	-0.23176116	0.8209353	0.16176917	1e+09	0.8036136
1.920010760776241e-09	0.2167669	0.813176	0.1634939	1e+09	0.72254163
1.9300200749468904e-09	0.20832756	0.84372663	-0.17683308	1e+09	0.6384977
1.9400047939788644e-09	-0.21064417	0.8393463	-0.19600129	1e+09	0.5521448
1.950004728578153e-09	-0.34333205	0.8344612	0.07323462	1e+09	0.4634831
1.9600126536344246e-09	-0.0812556	0.8873958	0.24060595	1e+09	0.37291932
1.970021509756235e-09	0.26499116	0.832685	0.18445817	1e+09	0.28087282
1.9800256336229725e-09	0.41650295	0.81227434	0.019302804	1e+09	0.18776016
1.9900035925128937e-09	0.3916625	0.8590713	-0.08873002	1e+09	0.09415199
2.000007735379689e-09	0.29784203	0.9048331	-0.11699765	1e+09	-7.290424e-05
2.010014544868568e-09	0.21059966	0.92626774	-0.08974668	1e+09	-0.09432259
2.0200267965754184e-09	0.17241709	0.91703373	-0.021603711	1e+09	-0.18825041
2.0300157377891605e-09	0.18919294	0.87112576	0.08494678	1e+09	-0.28121766
2.0400266699289922e-09	0.22928861	0.74921274	0.2461508	1e+09	-0.3732783
2.0500136033679316e-09	0.15325582	0.5217551	0.42437214	1e+09	-0.46364743
2.0600011224540877e-09	-0.16192293	0.41610393	0.3770056	1e+09	-0.5521967
2.0700047099125895e-09	-0.35568038	0.48983663	-0.024078935	1e+09	-0.6387091
2.080012031332119e-09	-0.20686159	0.40217227	-0.4616447	1e+09	-0.72272986
2.0900243160673286e-09	0.31120652	0.35864747	-0.40491384	1e+09	-0.8039337
2.1000275957615244e-09	0.4297999	0.39425027	0.2558626	1e+09	-0.8818883
2.1100074935702555e-09	-0.16303447	0.31701887	0.49932843	1e+09	-0.9561904
2.1200247244783312e-09	-0.3941952	0.29425004	-0.14199995	1e+09	-1.0269905
2.1300036831340618e-09	0.152467	0.25703517	-0.37773603	1e+09	-1.0934767
2.140026059973057e-09	0.24148513	0.24112701	0.21424733	1e+09	-1.1559263
2.150007888454433e-09	-0.27564332	0.22424774	0.054846317	1e+09	-1.2135692
2.160004570158969e-09	0.15905732	0.16945304	-0.16828531	1e+09	-1.266515
2.1700067219428697e-09	-0.032907873	0.12599392	0.29310682	1e+09	-1.3144906
2.1800171281964215e-09	-0.24838367	0.11161302	-0.34100568	1e+09	-1.3573093
2.190006167620458e-09	0.47799307	0.08040707	0.067693904	1e+09	-1.3946861
2.2000100779400015e-09	-0.47099745	0.026377816	0.32747203	1e+09	-1.4266142
2.210019772566548e-09	0.20870574	-0.07263223	-0.5751298	1e+09	-1.452921
2.220012144995169e-09	0.09782418	-0.14049642	0.62207973	1e+09	-1.4734523
2.230006954568597e-09	-0.40147355	-0.16502333	-0.49574152	1e+09	-1.4881803
2.2400014258198743e-09	0.56291044	-0.18139125	0.2864651	1e+09	-1.497041
2.250018926865934e-09	-0.6661248	-0.2062654	-0.04228475	1e+09	-1.5
2.2600081332718245e-09	0.64527464	-0.2556799	-0.180616	1e+09	-1.4970353
2.2700084562055028e-09	-0.5606747	-0.33157384	0.3531405	1e+09	-1.488162
2.2800063331745714e-09	0.42206237	-0.39756247	-0.47604424	1e+09	-1.4734197
2.2900193574012024e-09	-0.22753257	-0.4557106	0.52232736	1e+09	-1.4528294
2.3000143518672882e-09	0.030112673	-0.5034819	-0.51537216	1e+09	-1.426543
2.3100265536993724e-09	0.15916255	-0.52573705	0.44355464	1e+09	-1.3945726
2.320025659956569e-09	-0.3246991	-0.5461488	-0.30398354	1e+09	-1.3571376
2.3300174946082046e-09	0.39832285	-0.57054573	0.11066665	1e+09	-1.3143805
2.3400222425963723e-09	-0.38966754	-0.60677063	0.09957496	1e+09	-1.2663796
2.350018173532912e-09	0.23025808	-0.6588365	-0.27424392	1e+09	-1.2134248
2.3600238601025957e-09	0.022680566	-0.6923827	0.31537104	1e+09	-1.1556265
2.3700261065966024e-09	-0.2660996	-0.68262374	-0.17977682	1e+09	-1.0932845
2.380006021727122e-09	0.31316957	-0.6888037	-0.0983372	1e+09	-1.0267793
2.390018120868457e-09	-0.031126922	-0.76180273	0.2924705	1e+09	-0.9560044
2.400010205974274e-09	-0.3302061	-0.75031275	-0.14552064	1e+09	-0.8816001
2.4100209629340833e-09	0.2640854	-0.74618447	-0.24017783	1e+09	-0.80357337
2.4200147817309503e-09	0.2935112	-0.79634297	0.25477174	1e+09	-0.72250843
2.430007122934647e-09	-0.33670822	-0.7813843	0.21460834	1e+09	-0.6386082
2.4400129715638965e-09	-0.35381892	-0.8103087	-0.23118828	1e+09	-0.5520732
2.4500053056919146e-09	0.21360527	-0.8337842	-0.29878825	1e+09	-0.46347794
2.460023866284437e-09	0.52617115	-0.7667135	0.008229078	1e+09	-0.37281695
2.4700101405165036e-09	0.31628177	-0.85346407	0.26575902	1e+09	-0.28097808
2.4800252370340137e-09	-0.13592477	-0.8938956	0.30394623	1e+09	-0.18776387
2.490003239648632e-09	-0.47974464	-0.78486484	0.22539802	1e+09	-0.094155304
2.500026091144393e-09	-0.6555655	-0.632235	0.16915454	1e+09	0.00024590324
2.5100131540656898e-09	-0.7637907	-0.4622805	0.2061389	1e+09	0.09430951
2.5200251140153568e-09	-0.798021	-0.17256781	0.37477717	1e+09	0.18823467
2.5300082978543984e-09	-0.5332192	0.26299268	0.61037254	1e+09	0.2811488
2.5400052574014727e-09	0.1397838	0.45004267	0.6569164	1e+09	0.37308282
2.5500153193509e-09	0.6319789	0.23985453	0.31039432	1e+09	0.4636628
2.5600235236512302e-09	0.55661386	0.23428917	-0.22698727	1e+09	0.55239296
2.570024216812575e-09	0.023148362	0.3878087	-0.5113211	1e+09	0.6388754
2.580021707605595e-09	-0.5198173	0.29011717	-0.2090599	1e+09	0.7228098
2.5900134727381736e-09	-0.33628988	0.36528403	0.4074977	1e+09	0.8038474
2.6000080337956747e-09	0.44149208	0.36405164	0.28284824	1e+09	0.88173914
2.6100130746910595e-09	0.24806622	0.43631747	-0.43207607	1e+09	0.95623094
2.6200099049641626e-09	-0.4990276	0.39535832	-0.08668551	1e+09	1.0268887
2.6300112594304187e-09	0.09161507	0.47877914	0.42435682	1e+09	1.0935255
2.6400054533777416e-09	0.38385162	0.47620645	-0.25594327	1e+09	1.1558026
2.65000331650356e-09	-0.45051786	0.49182528	-0.13888429	1e+09	1.2135439
2.660007210595388e-09	0.18751797	0.55790794	0.40638465	1e+09	1.2665282
2.670021786137303e-09	0.13575622	0.5826607	-0.44746852	1e+09	1.314559
2.680021684823465e-09	-0.37206003	0.60521364	0.33584237	1e+09	1.3573276
2.6900180313293255e-09	0.46531492	0.6256424	-0.18747026	1e+09	1.3947272
2.7000039114859626e-09	-0.48318344	0.65889525	0.059352476	1e+09	1.4265962
2.7100140124330286e-09	0.4186846	0.69895744	0.029840618	1e+09	1.4529076
2.7200244868863534e-09	-0.34864488	0.7233168	-0.080932155	1e+09	1.4734741
2.7300234023383013e-09	0.2609738	0.7579643	0.11100633	1e+09	1.4881997
2.7400092937123757e-09	-0.18524334	0.78139174	-0.12392815	1e+09	1.4970456
2.7500070411771936e-09	0.11613528	0.80891645	0.13921328	1e+09	1.5
2.760025372707546e-09	-0.060494315	0.82672876	-0.14452757	1e+09	1.497025
2.7700039869997852e-09	0.006585266	0.8466052	0.15242928	1e+09	1.4881673
2.7800098688457342e-09	0.047246523	0.8614413	-0.15109056	1e+09	1.4734135
2.7900193319700497e-09	-0.10329176	0.8755152	0.14162976	1e+09	1.4528294
2.800024592121538e-09	0.16258802	0.88297194	-0.12322822	1e+09	1.4265131
2.810004921931737e-09	-0.22071189	0.8909347	0.085599184	1e+09	1.3946476
2.8200063298327127e-09	0.2599929	0.8933302	-0.02874925	1e+09	1.3572152
2.830015274531499e-09	-0.2790059	0.901971	-0.050758805	1e+09	1.3143907
2.8400255159617316e-09	0.24170625	0.90898764	0.14437982	1e+09	1.266363
2.8500070445779287e-09	-0.14217351	0.9304448	-0.22426772	1e+09	1.2134864
2.8600154822444904e-09	-0.032881174	0.9410507	0.24957143	1e+09	1.1556768
2.8700006891334383e-09	0.20754838	0.94120526	-0.17357801	1e+09	1.0934485
2.8800141442295115e-09	-0.28689876	0.93697387	0.0069390405	1e+09	1.0267235
2.8900002170219313e-09	0.16467372	0.946111	0.15612903	1e+09	0.9561344
2.9000170937719247e-09	0.08262561	0.9577477	-0.16405532	1e+09	0.8815475
2.91000991108166e-09	-0.20226622	0.9544705	-0.0018626384	1e+09	0.80366135
2.920002196361734e-09	0.026826058	0.95860314	0.118761495	1e+09	0.7226124
2.9300217445529416e-09	0.13409002	0.9570822	-0.0141333025	1e+09	0.6384835
2.9400111833498114e-09	0.010127701	0.9672759	-0.0698397	1e+09	0.55208886
2.9500270136664013e-09	-0.07287105	0.9713324	-0.034673616	1e+09	0.46328336
2.960021350489165e-09	-0.081706	0.9556055	0.0019591285	1e+09	0.37283993
2.9700188695211896e-09	-0.07304041	0.96195877	0.028906561	1e+09	0.2808973
2.9800186627289413e-09	-0.042064484	0.96714693	0.052449375	1e+09	0.18782534
2.990021577096991e-09	0.025677944	0.96299314	0.068973	1e+09	0.09398282
3.0000253151287142e-09	0.117255166	0.95291203	0.085933626	1e+09	-0.00023858946
3.0100035872704945e-09	0.22560854	0.9228648	0.12618493	1e+09	-0.09421952
3.020015538602824e-09	0.3591837	0.8428965	0.21879314	1e+09	-0.18814515
3.030008057419446e-09	0.49894863	0.6477105	0.3909775	1e+09	-0.28114656
3.040002933789251e-09	0.48891643	0.27740464	0.64446	1e+09	-0.37306163
3.0500060483200887e-09	0.034164794	-0.019730167	0.8229791	1e+09	-0.4635797
3.0600110230530546e-09	-0.51949126	0.18904829	0.562444	1e+09	-0.5522834
3.070003277043179e-09	-0.6079992	0.2961486	-0.052358747	1e+09	-0.6386969
3.0800274620136165e-09	-0.17338362	0.07454373	-0.5169007	1e+09	-0.7228573
3.0900250932905176e-09	0.4224358	0.13075246	-0.26640797	1e+09	-0.8039399
3.100004986538526e-09	0.27001685	0.090691544	0.35569274	1e+09	-0.8817159
3.110018116777162e-09	-0.31995958	0.082405604	0.19843638	1e+09	-0.95626754
3.1200119057712433e-09	-0.11995873	0.012996658	-0.34177324	1e+09	-1.0269024
3.1300241909332353e-09	0.3039605	-0.008417323	0.02091359	1e+09	-1.093609
3.1400094650256366e-09	-0.111441076	-0.0059936526	0.18468864	1e+09	-1.1558267
3.150026720483985e-09	-0.07303181	-0.061848674	-0.12212994	1e+09	-1.2136735
3.160016400871558e-09	0.0935143	-0.1237154	0.010040546	1e+09	-1.2665747
3.1700102067371466e-09	-0.07323754	-0.115067415	0.10986464	1e+09	-1.3145064
3.1800029345530955e-09	-0.093190335	-0.14273663	-0.1644997	1e+09	-1.3572524
3.1900150520011747e-09	0.18718384	-0.17369872	0.0953016	1e+09	-1.394717
3.2000010911833677e-09	-0.26560807	-0.20340577	0.009983148	1e+09	-1.4265879
3.2100098554276727e-09	0.27080852	-0.2388192	-0.12077691	1e+09	-1.4528978
3.2200029137951096e-09	-0.2397369	-0.28395578	0.25193727	1e+09	-1.473436
3.230013166546517e-09	0.1039944	-0.33483446	-0.34854	1e+09	-1.4881876
3.240009424164288e-09	0.052197598	-0.37495974	0.3721297	1e+09	-1.4970456
3.250002701012506e-09	-0.19373041	-0.4169195	-0.31961533	1e+09	-1.5
3.26000153348793e-09	0.29037613	-0.4344581	0.22372569	1e+09	-1.4970392
3.270001683625608e-09	-0.34276634	-0.47590956	-0.09955653	1e+09	-1.48817
3.280007925621732e-09	0.3118338	-0.5030415	-0.009947933	1e+09	-1.4734169
3.2900220960353796e-09	-0.29513776	-0.5404108	0.10277879	1e+09	-1.4528229
3.300020827007384e-09	0.21372041	-0.5764948	-0.1768161	1e+09	-1.4265242
3.3100022932621836e-09	-0.12862214	-0.60277516	0.23409596	1e+09	-1.3946568
3.320010298141112e-09	-0.025804926	-0.62674326	-0.24495594	1e+09	-1.3571992
3.330001466504273e-09	0.14461845	-0.64134926	0.19621663	1e+09	-1.3144534
3.3400272136368624e-09	-0.25440076	-0.6534603	-0.084601395	1e+09	-1.2663544
3.3500109706531324e-09	0.24263239	-0.6824674	-0.06688568	1e+09	-1.2134647
3.3600153776644314e-09	-0.13108236	-0.7300348	0.20259061	1e+09	-1.1556774
3.3700000427336437e-09	-0.10992309	-0.7530042	-0.21578783	1e+09	-1.0934527
3.380018510755677e-09	0.24845114	-0.7425731	0.046440415	1e+09	-1.0266935
3.3900018726809337e-09	-0.1549795	-0.7766921	0.1759317	1e+09	-0.9561224
3.4000207779236325e-09	-0.16897075	-0.80644494	-0.19235894	1e+09	-0.88151944
3.410008824804424e-09	0.27432853	-0.7805252	-0.07361448	1e+09	-0.80367
3.4200269608188107e-09	0.057144366	-0.83601356	0.23680216	1e+09	-0.7224078
3.4300001111272352e-09	-0.3272364	-0.80496347	0.03779612	1e+09	-0.638668
3.440026893678325e-09	-0.09845231	-0.8528576	-0.2325112	1e+09	-0.55195117
3.4500062155361317e-09	0.2932276	-0.80722857	-0.12223641	1e+09	-0.46346977
3.460003837741911e-09	0.27937675	-0.8556223	0.124414146	1e+09	-0.3729998
3.47001142678903e-09	-0.0215545	-0.87931883	0.20913076	1e+09	-0.2809662
3.4800205648230144e-09	-0.27677363	-0.826383	0.14175123	1e+09	-0.18780756
3.490000921457262e-09	-0.37428814	-0.80761933	0.050697103	1e+09	-0.09417711
3.5000132564056792e-09	-0.3903992	-0.8194777	0.015917325	1e+09	0.00012493868
3.5100093487026005e-09	-0.40847862	-0.803561	0.0507179	1e+09	0.094273716
3.5200262638080386e-09	-0.4584735	-0.72269106	0.1471851	1e+09	0.18824543
3.530009621838121e-09	-0.50839424	-0.5352695	0.31089634	1e+09	0.28116104
3.540016427526232e-09	-0.41959015	-0.23046276	0.5240413	1e+09	0.3731848
3.5500093901130117e-09	-0.030685198	-0.01649336	0.6410747	1e+09	0.46360967
3.56000647452952e-09	0.41401643	-0.116877936	0.41418836	1e+09	0.5522436
3.570004998970572e-09	0.5076173	-0.15054758	-0.12436958	1e+09	0.6387116
3.5800156725256353e-09	0.08111191	0.0010876204	-0.49531356	1e+09	0.72275996
3.59002301329281e-09	-0.40521437	-0.04514642	-0.20788014	1e+09	0.8039233
3.6000203971033544e-09	-0.19127654	0.0067616045	0.29971597	1e+09	0.8818334
3.6100172696902067e-09	0.2574354	0.023871055	0.08906784	1e+09	0.9562614
3.6200210070944258e-09	-0.0017250271	0.07736619	-0.23810913	1e+09	1.026965
3.630009708524405e-09	-0.20875718	0.07980162	0.106993325	1e+09	1.0935156
3.64001805800288e-09	0.16395384	0.09309105	0.10401686	1e+09	1.1558783
3.6500038358223617e-09	-0.011980487	0.16055937	-0.09626104	1e+09	1.2135468
3.6600162967231724e-09	0.016588155	0.17848727	0.0817744	1e+09	1.2665741
3.670012759440874e-09	0.048643053	0.200171	-0.0653719	1e+09	1.314518
3.6800218196331707e-09	-0.020715425	0.23203085	0.014272673	1e+09	1.3573282
3.690021106185144e-09	0.02060521	0.26425546	0.0039785644	1e+09	1.394738
3.7000183075554885e-09	0.054267243	0.31026423	0.02296305	1e+09	1.4266381
3.7100036201210548e-09	-0.049096137	0.34943286	-0.04704611	1e+09	1.4528832
3.7200010320942445e-09	0.1038379	0.38148847	0.07553651	1e+09	1.4734327
3.730025045567292e-09	-0.09574604	0.41939807	-0.11556593	1e+09	1.4882016
3.740025125247915e-09	0.09955023	0.44789627	0.18808115	1e+09	1.4970549
3.750006748673016e-09	-0.016999632	0.4861315	-0.23292361	1e+09	1.5
3.76000000481434e-09	-0.03711471	0.52606213	0.24712655	1e+09	1.49704
3.77001341820185e-09	0.15304634	0.5434669	-0.22380158	1e+09	1.4881562
3.780005081561423e-09	-0.20755924	0.5663014	0.16690682	1e+09	1.4734219
3.790016181565321e-09	0.29145133	0.59205014	-0.08824579	1e+09	1.4528368
3.8000204739697974e-09	-0.29656687	0.6139271	-0.00917254	1e+09	1.4265251
3.810026037653291e-09	0.29480916	0.6463079	0.11394828	1e+09	1.3945744
3.8200170392859e-09	-0.20135269	0.6763866	-0.21563935	1e+09	1.3571723
3.8300008353940654e-09	0.08295415	0.7137825	0.27523747	1e+09	1.3144562
3.840007491560987e-09	0.09649699	0.73630834	-0.26856974	1e+09	1.2664541
3.850000179400987e-09	-0.21431622	0.7451903	0.17834748	1e+09	1.2135245
3.860019248009386e-09	0.29491287	0.75691247	-0.011326676	1e+09	1.1556542
3.870015111599768e-09	-0.18775043	0.7840104	-0.16315377	1e+09	1.0933554
3.8800274409976084e-09	-0.029255096	0.81316227	0.20540124	1e+09	1.0266321
3.890014790328008e-09	0.21984315	0.80313724	-0.059724957	1e+09	0.9560286
3.900021278630863e-09	-0.13196509	0.8304783	-0.13127252	1e+09	0.8815156
3.910014226412469e-09	-0.13114676	0.8428222	0.10953273	1e+09	0.80362695
3.9200173309022205e-09	0.14350817	0.851321	0.10743129	1e+09	0.7224874
3.9300080765062016e-09	0.16419238	0.86048126	-0.10025341	1e+09	0.63860005
3.940002262620174e-09	-0.10841851	0.8674524	-0.14228159	1e+09	0.552167
3.950004716521395e-09	-0.22253011	0.8622387	0.038512927	1e+09	0.4634832
3.9600113663328225e-09	-0.03741328	0.8862742	0.16554365	1e+09	0.37293106
3.9700167092249156e-09	0.20165156	0.8924458	0.12347408	1e+09	0.2809173
3.980015024203176e-09	0.29479906	0.86644477	0.013147996	1e+09	0.18785937
3.9900245119996974e-09	0.26592916	0.8505199	-0.057846986	1e+09	0.09395521
4.00000247936722e-09	0.2067869	0.84232867	-0.0743446	1e+09	-2.3367485e-05
4.010010882068515e-09	0.16061309	0.82069397	-0.05075231	1e+09	-0.09428814
4.020011432234729e-09	0.13844308	0.76533014	-0.0062641697	1e+09	-0.18810675
4.0300272163819025e-09	0.13085817	0.6442322	0.04381013	1e+09	-0.28132394
4.040007824437855e-09	0.09085032	0.45226142	0.09635221	1e+09	-0.37310627
4.05001749911703e-09	-0.01105035	0.30735546	0.11426373	1e+09	-0.46368235
4.060007205399335e-09	-0.06955622	0.29247254	0.058224857	1e+09	-0.55224997
4.07000966276717e-09	0.002878753	0.30478996	0.006530933	1e+09	-0.6387513
4.080017909274138e-09	0.08086974	0.24045146	0.06868962	1e+09	-0.72277844
4.090008017852816e-09	0.007599007	0.15334201	0.116316885	1e+09	-0.803804
4.100023161594785e-09	-0.022307523	0.23070443	0.06914944	1e+09	-0.8818545
4.110005612653643e-09	-0.0217212	0.17788391	0.052927986	1e+09	-0.95617676
4.120019584049468e-09	-0.10338794	0.10179093	-0.080280565	1e+09	-1.0269552
4.1300246344192955e-09	0.11136297	0.06857189	-0.1226736	1e+09	-1.0936118
4.14000901041376e-09	0.13815725	0.046157688	0.17344932	1e+09	-1.155824
4.150019994645754e-09	-0.22284049	0.014005246	0.054993484	1e+09	-1.2136363
4.160008465637366e-09	0.076549254	-0.044821482	-0.186858	1e+09	-1.2665347
4.170024229936803e-09	0.06900017	-0.05685298	0.15905306	1e+09	-1.3145701
4.180004457126746e-09	-0.10188991	-0.115452394	-0.098013975	1e+09	-1.3572584
4.190015075744224e-09	0.11880294	-0.1641005	0.106651716	1e+09	-1.394717
4.200019040218e-09	-0.19024816	-0.19069831	-0.056577504	1e+09	-1.4266403
4.2100149578579726e-09	0.22494356	-0.20874612	-0.06878654	1e+09	-1.4529098
4.220019591284567e-09	-0.17124218	-0.24757534	0.18278565	1e+09	-1.4734654
4.230027427028017e-09	0.07070633	-0.30786645	-0.2272194	1e+09	-1.4882045
4.2400110015844765e-09	-0.0062921094	-0.34772176	0.21178663	1e+09	-1.4970466
4.250023923312093e-09	-0.036308073	-0.38710275	-0.17011985	1e+09	-1.5
4.260016244148956e-09	0.048320122	-0.4291854	0.12933028	1e+09	-1.4970305
4.270016620044506e-09	-0.0533215	-0.45511335	-0.08344986	1e+09	-1.4881524
4.2800140904390855e-09	0.036133457	-0.4966007	0.06359224	1e+09	-1.473406
4.290028021843205e-09	-0.022756107	-0.5188613	-0.06527698	1e+09	-1.4528091
4.300000843619009e-09	0.027757362	-0.56126463	0.0802595	1e+09	-1.4265823
4.3100211397975795e-09	-0.05273617	-0.5903726	-0.08869423	1e+09	-1.3945913
4.320013289484734e-09	0.102759376	-0.6008898	0.08045176	1e+09	-1.3571873
4.330026995098718e-09	-0.14854842	-0.6337297	-0.015532689	1e+09	-1.3143374
4.340010520530103e-09	0.11673367	-0.65738726	-0.0466002	1e+09	-1.2664387
4.350011857376448e-09	-0.09200387	-0.69641703	0.10014469	1e+09	-1.2134598
4.3600219991856235e-09	-0.015425222	-0.7113647	-0.11320598	1e+09	-1.1556377
4.370005209287442e-09	0.09222621	-0.70804965	0.061145462	1e+09	-1.0934193
4.380016223587473e-09	-0.12151318	-0.7301407	0.044486754	1e+09	-1.0267092
4.390007199242288e-09	0.004819585	-0.76254106	-0.08855126	1e+09	-0.9560837
4.400015313216283e-09	0.07094975	-0.7663074	0.048000544	1e+09	-0.8815611
4.4100201682972435e-09	-0.11273378	-0.75959975	0.042377062	1e+09	-0.8035797
4.420007277083744e-09	-0.04915616	-0.7944769	-0.071120575	1e+09	-0.7225704
4.4300263749455495e-09	0.11035036	-0.7850323	-0.0069109295	1e+09	-0.638444
4.4400092619801156e-09	0.0056932457	-0.80938905	0.098050505	1e+09	-0.55210567
4.45000467905788e-09	-0.15240926	-0.813689	0.042579602	1e+09	-0.46348354
4.4600002520889826e-09	-0.1292981	-0.83068323	-0.05861053	1e+09	-0.37303254
4.470015081321629e-09	0.0002397208	-0.83369267	-0.06687677	1e+09	-0.28093234
4.480017632548802e-09	0.07978368	-0.799587	-0.013116385	1e+09	-0.18783498
4.490000258592607e-09	0.06369875	-0.78848004	0.030406313	1e+09	-0.09418335
4.500013526803418e-09	0.0124648	-0.8053742	0.045019478	1e+09	0.00012748712
4.51001392803252e-09	-0.032644913	-0.8187226	0.050721154	1e+09	0.09431679
4.520026556401778e-09	-0.06508212	-0.78848976	0.06295686	1e+09	0.18824816
4.530022911817513e-09	-0.07409448	-0.6856344	0.07845776	1e+09	0.2812841
4.540010848565175e-09	-0.041515745	-0.4975656	0.081296206	1e+09	0.37313387
4.550014249423829e-09	-0.0016724099	-0.27564302	0.04938906	1e+09	0.4636532
4.560005254871081e-09	-0.015437533	-0.1456107	0.0071310215	1e+09	0.55223286
4.570025447306018e-09	-0.017193103	-0.1360898	0.0007567422	1e+09	0.6388859
4.580007501767973e-09	0.0023227683	-0.11117842	-0.020344667	1e+09	0.7226925
4.590007583162381e-09	-0.06239846	-0.08479478	-0.00890198	1e+09	0.8038005
4.600017455521999e-09	-0.04478816	-0.03963062	0.06161978	1e+09	0.88181096
4.610000381993772e-09	0.071153335	-0.03469214	0.036876798	1e+09	0.95613873
4.6200153935334495e-09	0.057769015	0.020997418	-0.027036052	1e+09	1.0269264
4.6300019425975025e-09	-0.04823038	0.034577046	-0.027802259	1e+09	1.0934654
4.640008032793034e-09	0.012961214	0.10100863	0.05093982	1e+09	1.1558181
4.6500076262121304e-09	0.031597167	0.085849255	-0.021214869	1e+09	1.2135677
4.660009132358864e-09	-0.00028731395	0.15589607	0.0085859075	1e+09	1.266538
4.670011497632036e-09	-0.007155901	0.19767419	-0.049986813	1e+09	1.3145123
4.680005329702127e-09	-0.03116083	0.2314769	0.10082307	1e+09	1.357262
4.690005625593273e-09	0.07874077	0.28927165	-0.096604615	1e+09	1.3946842
4.700001309177729e-09	-0.114438385	0.3303242	0.063379146	1e+09	1.4265885
4.710001152193826e-09	0.14442489	0.3980173	-0.022895837	1e+09	1.4528774
4.7200079600442154e-09	-0.12600397	0.42287445	-0.032193795	1e+09	1.4734449
4.730020726743958e-09	0.10809963	0.45118433	0.10094236	1e+09	1.4881965
4.7400109544252764e-09	-0.06756895	0.49903405	-0.15231363	1e+09	1.4970466
4.750025657239714e-09	-0.005680111	0.5338699	0.1931189	1e+09	1.5
4.760022787108474e-09	0.06447504	0.5712252	-0.20266527	1e+09	1.4970266
4.770011225113692e-09	-0.1285198	0.6049809	0.17803854	1e+09	1.4881588
4.780000037581305e-09	0.17714329	0.6295649	-0.1325919	1e+09	1.4734308
4.790003804575904e-09	-0.21340841	0.64615	0.04933984	1e+09	1.4528658
4.80001759689806e-09	0.19609337	0.66724825	0.03392327	1e+09	1.4265335
4.810001709824599e-09	-0.15454033	0.70232904	-0.11012624	1e+09	1.3946588
4.820025163869748e-09	0.07067741	0.73168325	0.16499636	1e+09	1.3571396
4.830005733821015e-09	0.040945735	0.7552279	-0.17721833	1e+09	1.3144339
4.8400002417528065e-09	-0.14375103	0.77675086	0.14096178	1e+09	1.2664907
4.850004628568255e-09	0.21043664	0.7736455	-0.04522529	1e+09	1.2134999
4.860018146874264e-09	-0.19051725	0.78959167	-0.082136564	1e+09	1.1556609
4.870010099386715e-09	0.08296461	0.82396424	0.18328522	1e+09	1.0933877
4.88001974993066e-09	0.10899629	0.83675617	-0.16936934	1e+09	1.026685
4.890004779521429e-09	-0.21191603	0.83019346	0.00873825	1e+09	0.9561013
4.900025390142333e-09	0.11088504	0.8607916	0.1599429	1e+09	0.88148427
4.910005923124125e-09	0.14862521	0.8595804	-0.118367955	1e+09	0.80369306
4.920005086310886e-09	-0.14708574	0.87429166	-0.0988041	1e+09	0.7225885
4.930009184950135e-09	-0.10102122	0.8660412	0.10158688	1e+09	0.63859063
4.9400015573413516e-09	0.10245642	0.88419354	0.09978792	1e+09	0.5521732
4.950009619073671e-09	0.13874066	0.88250244	-0.0144687705	1e+09	0.46343926
4.960006234756506e-09	0.054884754	0.8919686	-0.069212094	1e+09	0.3729779
4.9700213493905385e-09	-0.020983832	0.9085282	-0.068210036	1e+09	0.2808743
4.980003415775841e-09	-0.061406292	0.9051468	-0.047732256	1e+09	0.18796791
4.990016240426769e-09	-0.07884073	0.8853985	-0.032986514	1e+09	0.09403302
5.000008298190636e-09	-0.073653884	0.86246127	-0.01952031	1e+09	-7.8208606e-05
5.010006548965418e-09	-0.04335178	0.83492154	-0.010367441	1e+09	-0.09424738
5.02000902188078e-09	-0.0067450963	0.7920829	-0.0045967037	1e+09	-0.18808421
5.03000906987093e-09	0.03301754	0.72456765	0.013153894	1e+09	-0.28115594
5.040013556442981e-09	0.08103015	0.60390216	0.06075579	1e+09	-0.37315857
5.050005635374212e-09	0.120158635	0.4170605	0.14751962	1e+09	-0.46357602
5.060015515472617e-09	0.071409926	0.27781722	0.25178197	1e+09	-0.5523228
5.070002602475516e-09	-0.083039105	0.29260275	0.25329176	1e+09	-0.6386911
5.080024207504161e-09	-0.21763556	0.27083766	0.06196992	1e+09	-0.7228304